/*--------------------------------*- C++ -*----------------------------------*\
| =========                 |                                                 |
| \\      /  F ield         | OpenFOAM: The Open Source CFD Toolbox           |
|  \\    /   O peration     | Version:  4.1                                   |
|   \\  /    A nd           | Web:      www.OpenFOAM.org                      |
|    \\/     M anipulation  |                                                 |
\*---------------------------------------------------------------------------*/
FoamFile
{
    version     2.0;
    format      ascii;
    class       volScalarField;
    location    "0.6";
    object      gradTy;
}
// * * * * * * * * * * * * * * * * * * * * * * * * * * * * * * * * * * * * * //

dimensions      [0 -1 0 1 0 0 0];

internalField   nonuniform List<scalar> 
512
(
-28.1244
-28.0392
-27.8833
-27.6801
-27.4543
-27.2267
-27.0121
-26.8193
-26.6526
-26.5126
-26.3981
-26.3065
-26.2352
-26.1813
-26.1425
-26.1168
-26.1028
-26.0998
-26.1074
-26.1263
-26.1572
-26.2015
-26.261
-26.3374
-26.4319
-26.5447
-26.6739
-26.8143
-26.9566
-27.0869
-27.1881
-27.244
-28.1444
-28.0554
-27.8938
-27.6843
-27.4533
-27.2219
-27.005
-26.8112
-26.6442
-26.5046
-26.3906
-26.2997
-26.229
-26.1757
-26.1373
-26.112
-26.0982
-26.0952
-26.1027
-26.1213
-26.1519
-26.1958
-26.2549
-26.331
-26.4255
-26.5388
-26.6693
-26.8121
-26.9579
-27.0924
-27.1978
-27.2563
-28.1852
-28.0885
-27.9147
-27.6925
-27.4508
-27.2119
-26.9905
-26.7947
-26.6274
-26.4883
-26.3755
-26.2859
-26.2166
-26.1645
-26.127
-26.1023
-26.0889
-26.086
-26.0934
-26.1115
-26.1413
-26.1844
-26.2427
-26.3181
-26.4125
-26.5268
-26.6598
-26.8074
-26.9602
-27.1036
-27.2176
-27.2815
-28.2488
-28.1396
-27.9463
-27.7042
-27.4462
-27.196
-26.9681
-26.7694
-26.6017
-26.4637
-26.3527
-26.2653
-26.198
-26.1476
-26.1116
-26.0879
-26.0751
-26.0723
-26.0794
-26.0968
-26.1256
-26.1673
-26.2242
-26.2986
-26.3927
-26.5082
-26.645
-26.7995
-26.9633
-27.1204
-27.2482
-27.321
-28.3383
-28.2104
-27.9887
-27.7184
-27.4381
-27.173
-26.9368
-26.7347
-26.5668
-26.4306
-26.3223
-26.2378
-26.1733
-26.1253
-26.0912
-26.0689
-26.0568
-26.0541
-26.0608
-26.0773
-26.1046
-26.1445
-26.1995
-26.2722
-26.3657
-26.4826
-26.6239
-26.7877
-26.9662
-27.1429
-27.2908
-27.377
-28.4585
-28.3033
-28.0419
-27.7337
-27.4246
-27.1411
-26.8953
-26.6897
-26.5223
-26.3887
-26.284
-26.2034
-26.1425
-26.0976
-26.066
-26.0453
-26.0341
-26.0317
-26.0378
-26.053
-26.0785
-26.116
-26.1684
-26.2387
-26.331
-26.4489
-26.5953
-26.7703
-26.9678
-27.1708
-27.3471
-27.4528
-28.6162
-28.4215
-28.1053
-27.7478
-27.4032
-27.0984
-26.842
-26.6335
-26.4676
-26.3378
-26.2379
-26.1622
-26.1057
-26.0647
-26.036
-26.0173
-26.0073
-26.0051
-26.0106
-26.0243
-26.0473
-26.0819
-26.1307
-26.1979
-26.2879
-26.4062
-26.5578
-26.7455
-26.9662
-27.2037
-27.4193
-27.5534
-28.8212
-28.5689
-28.1777
-27.7572
-27.3705
-27.0419
-26.7753
-26.5649
-26.402
-26.2777
-26.1839
-26.1142
-26.0632
-26.0267
-26.0015
-25.9853
-25.9766
-25.9746
-25.9793
-25.9912
-26.0114
-26.0421
-26.0866
-26.1494
-26.2359
-26.3533
-26.5094
-26.7107
-26.9587
-27.2403
-27.5102
-27.6859
-29.088
-28.7497
-28.256
-27.7569
-27.3217
-26.9684
-26.6928
-26.4827
-26.3251
-26.2081
-26.1221
-26.0598
-26.0152
-25.984
-25.9628
-25.9494
-25.9422
-25.9406
-25.9443
-25.954
-25.9709
-25.9971
-26.0361
-26.093
-26.1743
-26.2889
-26.4479
-26.6626
-26.941
-27.2783
-27.6231
-27.8607
-29.4382
-28.9682
-28.3346
-27.7391
-27.251
-26.874
-26.5925
-26.3858
-26.2364
-26.129
-26.0526
-25.9991
-25.9621
-25.9369
-25.9204
-25.9101
-25.9046
-25.9032
-25.9059
-25.9132
-25.9262
-25.9469
-25.9792
-26.0288
-26.1026
-26.2116
-26.3707
-26.5967
-26.907
-27.3127
-27.7611
-28.0933
-29.9049
-29.2263
-28.4024
-27.6932
-27.1512
-26.7543
-26.4719
-26.273
-26.1355
-26.0405
-25.9755
-25.9325
-25.9041
-25.8858
-25.8745
-25.8678
-25.864
-25.863
-25.8645
-25.8691
-25.8777
-25.8919
-25.9161
-25.9566
-26.0202
-26.1201
-26.275
-26.5081
-26.8474
-27.3348
-27.9267
-28.4075
-30.5402
-29.5195
-28.4406
-27.6041
-27.0137
-26.6044
-26.3287
-26.1431
-26.0222
-25.9426
-25.891
-25.8603
-25.8418
-25.8309
-25.8256
-25.8227
-25.8208
-25.8202
-25.8204
-25.822
-25.8258
-25.8326
-25.847
-25.8768
-25.9269
-26.013
-26.158
-26.3911
-26.7492
-27.3292
-28.1185
-28.8402
-31.4299
-29.826
-28.417
-27.4522
-26.8294
-26.4195
-26.1614
-25.9952
-25.8968
-25.8358
-25.7994
-25.783
-25.7755
-25.7727
-25.7739
-25.7752
-25.7753
-25.7751
-25.7738
-25.7723
-25.7711
-25.7693
-25.772
-25.7899
-25.8225
-25.8892
-26.017
-26.2411
-26.5936
-27.2695
-28.3254
-29.4519
-32.7199
-30.0826
-28.2812
-27.2135
-26.5906
-26.195
-25.9695
-25.8287
-25.7602
-25.721
-25.701
-25.7016
-25.7061
-25.7115
-25.7204
-25.7262
-25.7278
-25.7284
-25.7253
-25.7205
-25.7146
-25.7029
-25.6914
-25.6973
-25.7078
-25.7482
-25.8501
-26.0572
-26.3556
-27.1133
-28.5133
-30.3437
-34.6685
-30.1295
-27.9608
-26.8624
-26.2936
-25.9266
-25.7547
-25.6424
-25.6146
-25.5996
-25.5956
-25.6175
-25.6345
-25.6477
-25.6656
-25.6763
-25.6788
-25.6806
-25.6753
-25.6672
-25.6578
-25.6346
-25.6045
-25.6018
-25.5839
-25.5901
-25.6551
-25.8488
-26.0011
-26.7951
-28.5921
-31.692
-37.7513
-29.5832
-27.3718
-26.3776
-25.9448
-25.6079
-25.5235
-25.4331
-25.464
-25.4736
-25.4817
-25.5326
-25.562
-25.5806
-25.6108
-25.6264
-25.6279
-25.6327
-25.6241
-25.6123
-25.6024
-25.566
-25.5088
-25.5081
-25.4519
-25.4153
-25.4262
-25.6489
-25.4844
-26.2244
-28.3438
-33.814
)
;

boundaryField
{
    left
    {
        type            calculated;
        value           nonuniform List<scalar> 
16
(
-28.1244
-28.1444
-28.1852
-28.2488
-28.3383
-28.4585
-28.6162
-28.8212
-29.088
-29.4382
-29.9049
-30.5402
-31.4299
-32.7199
-34.6685
-37.7513
)
;
    }
    right
    {
        type            calculated;
        value           nonuniform List<scalar> 
16
(
-27.244
-27.2563
-27.2815
-27.321
-27.377
-27.4528
-27.5534
-27.6859
-27.8607
-28.0933
-28.4075
-28.8402
-29.4519
-30.3437
-31.692
-33.814
)
;
    }
    interface
    {
        type            calculated;
        value           nonuniform List<scalar> 
32
(
-39.6537
-29.0944
-26.9995
-26.0997
-25.7591
-25.4349
-25.4049
-25.3222
-25.3882
-25.4097
-25.4224
-25.4903
-25.5256
-25.5462
-25.5835
-25.6017
-25.602
-25.6088
-25.5981
-25.5843
-25.5754
-25.5319
-25.4582
-25.4626
-25.3841
-25.3239
-25.3021
-25.5574
-25.179
-25.8633
-28.0995
-35.1197
)
;
    }
    bottom
    {
        type            calculated;
        value           nonuniform List<scalar> 
32
(
-28.1195
-28.0351
-27.8807
-27.679
-27.4546
-27.2278
-27.0138
-26.8214
-26.6547
-26.5147
-26.4
-26.3083
-26.2368
-26.1827
-26.1438
-26.118
-26.104
-26.1009
-26.1086
-26.1275
-26.1585
-26.2029
-26.2625
-26.339
-26.4335
-26.5462
-26.675
-26.8148
-26.9562
-27.0855
-27.1857
-27.2409
)
;
    }
    defaultFaces
    {
        type            empty;
    }
}


// ************************************************************************* //
