/*--------------------------------*- C++ -*----------------------------------*\
| =========                 |                                                 |
| \\      /  F ield         | OpenFOAM: The Open Source CFD Toolbox           |
|  \\    /   O peration     | Version:  4.1                                   |
|   \\  /    A nd           | Web:      www.OpenFOAM.org                      |
|    \\/     M anipulation  |                                                 |
\*---------------------------------------------------------------------------*/
FoamFile
{
    version     2.0;
    format      ascii;
    class       volScalarField;
    location    "0.6";
    object      gradTx;
}
// * * * * * * * * * * * * * * * * * * * * * * * * * * * * * * * * * * * * * //

dimensions      [0 -1 0 1 0 0 0];

internalField   nonuniform List<scalar> 
512
(
0.0105429
0.0298412
0.0445101
0.0532706
0.0564028
0.0550954
0.0508075
0.0448889
0.0383375
0.031841
0.0258003
0.0204019
0.0156901
0.0116197
0.00809216
0.00497907
0.00213731
-0.000581454
-0.00332438
-0.00623158
-0.00942754
-0.0130061
-0.0170052
-0.0213694
-0.0258993
-0.0301909
-0.0335835
-0.0351551
-0.0338319
-0.028687
-0.019433
-0.00690043
0.0320768
0.0906875
0.135014
0.161231
0.170329
0.166043
0.152846
0.134834
0.11501
0.0954213
0.0772505
0.0610421
0.0469163
0.0347285
0.0241769
0.0148723
0.00638303
-0.0017375
-0.00993225
-0.0186237
-0.0281892
-0.0389163
-0.0509286
-0.0640722
-0.0777639
-0.0908049
-0.101214
-0.106197
-0.102459
-0.0870944
-0.0591222
-0.0210192
0.0549988
0.155127
0.230066
0.273509
0.287638
0.279251
0.256136
0.225263
0.19166
0.158683
0.12824
0.101186
0.0776775
0.057444
0.039962
0.0245705
0.0105422
-0.00287253
-0.0164165
-0.030801
-0.046667
-0.0645151
-0.0845821
-0.106654
-0.129811
-0.152099
-0.170225
-0.179444
-0.174014
-0.148671
-0.101352
-0.0361224
0.0803868
0.225905
0.333026
0.393174
0.410644
0.396195
0.361444
0.31643
0.268213
0.221368
0.178433
0.140483
0.107653
0.0794979
0.0552449
0.0339427
0.0145572
-0.00397113
-0.0226917
-0.0426139
-0.0646606
-0.0895758
-0.117757
-0.148994
-0.182108
-0.214473
-0.241504
-0.256394
-0.250585
-0.21577
-0.148066
-0.0529743
0.109579
0.306344
0.447784
0.523586
0.541732
0.518289
0.46943
0.408482
0.344505
0.283157
0.227449
0.178559
0.136506
0.100613
0.0698186
0.0428564
0.0183711
-0.00501594
-0.0286679
-0.0539043
-0.0819529
-0.113844
-0.150199
-0.190904
-0.234642
-0.278235
-0.315878
-0.338578
-0.334458
-0.291128
-0.201632
-0.0725325
0.144348
0.400698
0.579032
0.668513
0.683357
0.64684
0.580585
0.501403
0.420246
0.343639
0.27485
0.214999
0.163878
0.120503
0.0834711
0.0511775
0.0219271
-0.00598727
-0.0342498
-0.0645025
-0.0983052
-0.137026
-0.181594
-0.232108
-0.287274
-0.343557
-0.394065
-0.427544
-0.428198
-0.378074
-0.265111
-0.0960757
0.187171
0.51466
0.732605
0.832222
0.837999
0.782959
0.695153
0.59496
0.494984
0.402291
0.320126
0.249347
0.189389
0.138865
0.0959842
0.0587699
0.0251694
-0.00686281
-0.0393366
-0.0742269
-0.113453
-0.158783
-0.211555
-0.272214
-0.339705
-0.41041
-0.476603
-0.524809
-0.534714
-0.480786
-0.342631
-0.125398
0.241662
0.656132
0.915908
1.01954
1.00806
0.927434
0.813035
0.68864
0.568059
0.458459
0.362685
0.281098
0.212628
0.155385
0.107134
0.0654968
0.0280431
-0.00761786
-0.0438222
-0.0828834
-0.127105
-0.178725
-0.239603
-0.310688
-0.391424
-0.478495
-0.563749
-0.63176
-0.657284
-0.604625
-0.43996
-0.163123
0.313316
0.836416
1.13843
1.23583
1.19566
1.08055
0.933668
0.781577
0.638576
0.511341
0.401847
0.309694
0.233161
0.169738
0.11669
0.0712206
0.0304953
-0.00822589
-0.0475973
-0.0902684
-0.138942
-0.196404
-0.265169
-0.346838
-0.441666
-0.547155
-0.655333
-0.749461
-0.799515
-0.756555
-0.565393
-0.213224
0.410804
1.07212
1.41233
1.48672
1.40228
1.24185
1.05589
0.872488
0.705368
0.55998
0.436841
0.334525
0.25053
0.181585
0.124418
0.0758054
0.0324754
-0.00865946
-0.0505522
-0.0961742
-0.14862
-0.211315
-0.287587
-0.379798
-0.489363
-0.61528
-0.750575
-0.87833
-0.965137
-0.945646
-0.731161
-0.281927
0.54834
1.38825
1.75296
1.7776
1.62821
1.40982
1.17778
0.95961
0.76697
0.603273
0.466813
0.354928
0.264259
0.190584
0.130079
0.0791205
0.0339377
-0.00889127
-0.0525806
-0.100398
-0.155779
-0.222897
-0.306108
-0.408531
-0.533105
-0.681214
-0.847864
-1.01761
-1.1575
-1.18363
-0.955714
-0.379323
0.750097
1.82335
2.17888
2.11234
1.87174
1.58152
1.29655
1.04066
0.821613
0.639995
0.490845
0.370194
0.273874
0.196395
0.133431
0.0810456
0.0348441
-0.00889542
-0.0535837
-0.102758
-0.160052
-0.230526
-0.319921
-0.431848
-0.571111
-0.742682
-0.944562
-1.16454
-1.3785
-1.48528
-1.26749
-0.522316
1.0587
2.43808
2.71065
2.49105
2.12808
1.7523
1.40844
1.11286
0.867205
0.668865
0.507975
0.379561
0.278924
0.19869
0.134221
0.0814822
0.0351697
-0.00864937
-0.0534732
-0.103116
-0.16108
-0.233502
-0.328206
-0.448463
-0.601202
-0.796761
-1.03694
-1.31322
-1.62653
-1.86827
-1.71124
-0.740211
1.55205
3.32981
3.36579
2.90613
2.38811
1.91555
1.50869
1.17296
0.901311
0.688665
0.51723
0.38218
0.279029
0.197163
0.132167
0.0803727
0.0349082
-0.00813868
-0.0521664
-0.101425
-0.15855
-0.230988
-0.330214
-0.457101
-0.620762
-0.839893
-1.12052
-1.45289
-1.89273
-2.35118
-2.35865
-1.08552
2.37731
4.6574
4.14521
3.33635
2.63732
2.06288
1.59163
1.21747
0.921035
0.698476
0.517647
0.377032
0.273976
0.191541
0.126902
0.0777419
0.0340786
-0.00737005
-0.0495618
-0.0977995
-0.152249
-0.221863
-0.325424
-0.456697
-0.626643
-0.867879
-1.19143
-1.56597
-2.15461
-2.9471
-3.32643
-1.65544
3.82154
6.68363
4.99934
3.73972
2.856
2.185
1.65082
1.24302
0.92269
0.698193
0.508287
0.362712
0.263937
0.181598
0.117858
0.0737992
0.0327321
-0.00640327
-0.0454565
-0.0926563
-0.142218
-0.20434
-0.313831
-0.446786
-0.614901
-0.875534
-1.24988
-1.62586
-2.36587
-3.64666
-4.80711
-2.63549
)
;

boundaryField
{
    left
    {
        type            calculated;
        value           uniform 0;
    }
    right
    {
        type            calculated;
        value           uniform 0;
    }
    interface
    {
        type            calculated;
        value           nonuniform List<scalar> 
32
(
3.82154
6.68363
4.99934
3.73972
2.856
2.185
1.65082
1.24302
0.92269
0.698193
0.508287
0.362712
0.263937
0.181598
0.117858
0.0737992
0.0327321
-0.00640327
-0.0454565
-0.0926563
-0.142218
-0.20434
-0.313831
-0.446786
-0.614901
-0.875534
-1.24988
-1.62586
-2.36587
-3.64666
-4.80711
-2.63549
)
;
    }
    bottom
    {
        type            calculated;
        value           nonuniform List<scalar> 
32
(
0.0105429
0.0298412
0.0445101
0.0532706
0.0564028
0.0550954
0.0508075
0.0448889
0.0383375
0.031841
0.0258003
0.0204019
0.0156901
0.0116197
0.00809216
0.00497907
0.00213731
-0.000581454
-0.00332438
-0.00623158
-0.00942754
-0.0130061
-0.0170052
-0.0213694
-0.0258993
-0.0301909
-0.0335835
-0.0351551
-0.0338319
-0.028687
-0.019433
-0.00690043
)
;
    }
    defaultFaces
    {
        type            empty;
    }
}


// ************************************************************************* //
