/*--------------------------------*- C++ -*----------------------------------*\
| =========                 |                                                 |
| \\      /  F ield         | OpenFOAM: The Open Source CFD Toolbox           |
|  \\    /   O peration     | Version:  4.1                                   |
|   \\  /    A nd           | Web:      www.OpenFOAM.org                      |
|    \\/     M anipulation  |                                                 |
\*---------------------------------------------------------------------------*/
FoamFile
{
    version     2.0;
    format      ascii;
    class       volScalarField;
    location    "0.6";
    object      T;
}
// * * * * * * * * * * * * * * * * * * * * * * * * * * * * * * * * * * * * * //

dimensions      [0 0 0 1 0 0 0];

internalField   nonuniform List<scalar> 
512
(
309.78
309.781
309.782
309.784
309.786
309.787
309.789
309.79
309.792
309.793
309.794
309.794
309.795
309.795
309.796
309.796
309.796
309.796
309.796
309.796
309.796
309.795
309.795
309.794
309.793
309.793
309.792
309.791
309.789
309.788
309.788
309.787
309.341
309.343
309.346
309.351
309.357
309.362
309.367
309.371
309.375
309.379
309.381
309.383
309.385
309.386
309.387
309.388
309.388
309.388
309.388
309.388
309.387
309.386
309.385
309.383
309.381
309.378
309.375
309.372
309.368
309.365
309.363
309.361
308.901
308.904
308.911
308.919
308.928
308.937
308.945
308.953
308.959
308.965
308.969
308.973
308.975
308.977
308.979
308.98
308.98
308.981
308.98
308.98
308.978
308.977
308.974
308.971
308.968
308.963
308.958
308.953
308.947
308.942
308.938
308.935
308.46
308.465
308.474
308.486
308.499
308.512
308.523
308.534
308.543
308.551
308.557
308.562
308.566
308.569
308.571
308.572
308.573
308.573
308.573
308.572
308.57
308.568
308.564
308.56
308.555
308.549
308.542
308.534
308.526
308.518
308.512
308.509
308.018
308.025
308.037
308.053
308.07
308.087
308.102
308.116
308.128
308.138
308.146
308.152
308.157
308.16
308.163
308.165
308.166
308.166
308.165
308.164
308.162
308.159
308.155
308.15
308.143
308.135
308.126
308.115
308.104
308.094
308.086
308.082
307.574
307.583
307.599
307.62
307.641
307.662
307.682
307.699
307.713
307.725
307.735
307.742
307.748
307.752
307.755
307.758
307.759
307.759
307.758
307.757
307.754
307.751
307.746
307.739
307.731
307.721
307.71
307.697
307.683
307.67
307.659
307.653
307.129
307.14
307.161
307.186
307.213
307.239
307.262
307.282
307.299
307.313
307.324
307.333
307.34
307.345
307.348
307.351
307.352
307.352
307.352
307.35
307.347
307.343
307.337
307.33
307.32
307.308
307.294
307.279
307.262
307.245
307.232
307.224
306.68
306.695
306.721
306.753
306.785
306.816
306.843
306.866
306.886
306.902
306.915
306.925
306.932
306.938
306.942
306.945
306.946
306.946
306.945
306.944
306.94
306.936
306.929
306.921
306.91
306.896
306.88
306.861
306.84
306.82
306.803
306.792
306.228
306.248
306.28
306.319
306.358
306.394
306.425
306.452
306.474
306.492
306.506
306.517
306.525
306.531
306.536
306.539
306.54
306.541
306.54
306.538
306.534
306.529
306.522
306.512
306.5
306.485
306.466
306.444
306.419
306.394
306.372
306.359
305.771
305.797
305.838
305.885
305.931
305.973
306.009
306.039
306.063
306.083
306.098
306.11
306.119
306.126
306.131
306.134
306.135
306.136
306.135
306.132
306.129
306.123
306.115
306.105
306.092
306.075
306.053
306.028
305.998
305.967
305.939
305.922
305.308
305.342
305.395
305.452
305.506
305.554
305.594
305.627
305.654
305.675
305.692
305.704
305.714
305.721
305.726
305.729
305.731
305.731
305.73
305.728
305.724
305.718
305.71
305.699
305.685
305.666
305.642
305.613
305.578
305.54
305.504
305.481
304.837
304.884
304.951
305.02
305.083
305.137
305.181
305.218
305.247
305.269
305.287
305.3
305.31
305.317
305.322
305.325
305.327
305.327
305.326
305.324
305.32
305.314
305.306
305.294
305.279
305.258
305.232
305.199
305.159
305.113
305.067
305.034
304.354
304.42
304.506
304.589
304.662
304.722
304.771
304.81
304.841
304.865
304.883
304.896
304.906
304.914
304.919
304.922
304.924
304.924
304.923
304.921
304.917
304.911
304.902
304.89
304.874
304.853
304.824
304.788
304.742
304.686
304.626
304.579
303.854
303.951
304.063
304.162
304.244
304.311
304.364
304.405
304.437
304.462
304.48
304.494
304.504
304.511
304.517
304.52
304.522
304.522
304.521
304.519
304.515
304.509
304.5
304.488
304.472
304.449
304.419
304.379
304.328
304.261
304.181
304.114
303.331
303.48
303.622
303.739
303.831
303.904
303.96
304.003
304.036
304.061
304.08
304.093
304.103
304.11
304.115
304.118
304.12
304.12
304.119
304.117
304.113
304.108
304.099
304.087
304.071
304.048
304.017
303.974
303.919
303.839
303.735
303.631
302.771
303.01
303.189
303.322
303.423
303.501
303.559
303.604
303.637
303.662
303.68
303.694
303.703
303.71
303.714
303.717
303.719
303.719
303.719
303.717
303.713
303.708
303.7
303.688
303.672
303.65
303.617
303.572
303.516
303.424
303.288
303.123
)
;

boundaryField
{
    left
    {
        type            zeroGradient;
    }
    right
    {
        type            zeroGradient;
    }
    interface
    {
        type            fixedValue;
        value           nonuniform List<scalar> 
32
(
302.472
302.794
302.991
303.132
303.236
303.318
303.377
303.423
303.456
303.481
303.5
303.513
303.523
303.53
303.534
303.537
303.539
303.539
303.538
303.536
303.533
303.528
303.521
303.508
303.493
303.47
303.438
303.39
303.336
303.238
303.084
302.864
)
;
    }
    bottom
    {
        type            fixedValue;
        value           uniform 310;
    }
    defaultFaces
    {
        type            empty;
    }
}


// ************************************************************************* //
