/*--------------------------------*- C++ -*----------------------------------*\
| =========                 |                                                 |
| \\      /  F ield         | OpenFOAM: The Open Source CFD Toolbox           |
|  \\    /   O peration     | Version:  4.1                                   |
|   \\  /    A nd           | Web:      www.OpenFOAM.org                      |
|    \\/     M anipulation  |                                                 |
\*---------------------------------------------------------------------------*/
FoamFile
{
    version     2.0;
    format      ascii;
    class       volScalarField;
    location    "1";
    object      gradTy;
}
// * * * * * * * * * * * * * * * * * * * * * * * * * * * * * * * * * * * * * //

dimensions      [0 -1 0 1 0 0 0];

internalField   nonuniform List<scalar> 
512
(
-26.441
-26.3359
-26.1421
-25.8863
-25.5971
-25.2996
-25.012
-24.7466
-24.5099
-24.3044
-24.1302
-23.9856
-23.8684
-23.7759
-23.7055
-23.6552
-23.6233
-23.6087
-23.611
-23.6303
-23.6673
-23.7233
-23.7997
-23.8977
-24.018
-24.1599
-24.3201
-24.4919
-24.6637
-24.8192
-24.9391
-25.0049
-26.4665
-26.3573
-26.1567
-25.8938
-25.5983
-25.2961
-25.0056
-24.7385
-24.501
-24.2955
-24.1217
-23.9777
-23.8611
-23.7691
-23.6993
-23.6494
-23.6177
-23.6032
-23.6055
-23.6246
-23.6614
-23.717
-23.793
-23.8908
-24.0114
-24.1541
-24.316
-24.4907
-24.6666
-24.827
-24.9516
-25.0202
-26.5185
-26.4006
-26.1862
-25.9085
-25.6004
-25.2888
-24.9923
-24.7219
-24.4832
-24.2777
-24.1046
-23.9617
-23.8464
-23.7557
-23.6869
-23.6378
-23.6066
-23.5923
-23.5945
-23.6132
-23.6494
-23.7043
-23.7796
-23.8771
-23.998
-24.1423
-24.3076
-24.488
-24.6722
-24.8427
-24.9769
-25.0516
-26.5993
-26.4673
-26.2307
-25.9299
-25.6024
-25.2769
-24.9715
-24.6964
-24.4559
-24.2506
-24.0788
-23.9378
-23.8244
-23.7356
-23.6684
-23.6205
-23.5901
-23.5761
-23.5781
-23.5963
-23.6315
-23.6853
-23.7595
-23.8563
-23.9776
-24.124
-24.2943
-24.4833
-24.6802
-24.8664
-25.016
-25.1006
-26.7122
-26.5592
-26.2905
-25.9572
-25.6031
-25.2589
-24.9422
-24.6613
-24.419
-24.2142
-24.0443
-23.9058
-23.7952
-23.7089
-23.6439
-23.5976
-23.5683
-23.5547
-23.5565
-23.5739
-23.6078
-23.6599
-23.7326
-23.8283
-23.9497
-24.0986
-24.2751
-24.4755
-24.6897
-24.8982
-25.0703
-25.1697
-26.8627
-26.6793
-26.3657
-25.9888
-25.6006
-25.2333
-24.903
-24.6157
-24.3716
-24.168
-24.0008
-23.8658
-23.7588
-23.6758
-23.6135
-23.5694
-23.5414
-23.5283
-23.5298
-23.5461
-23.5784
-23.6283
-23.6987
-23.7926
-23.9137
-24.0652
-24.2489
-24.4632
-24.6997
-24.938
-25.1417
-25.2626
-27.0583
-26.8311
-26.456
-26.0224
-25.592
-25.1975
-24.8521
-24.5582
-24.3131
-24.1116
-23.9483
-23.8178
-23.7152
-23.6363
-23.5775
-23.5359
-23.5095
-23.4971
-23.4982
-23.5132
-23.5433
-23.5904
-23.6576
-23.749
-23.869
-24.0225
-24.2139
-24.4443
-24.708
-24.9854
-25.2327
-25.3846
-27.31
-27.0191
-26.5602
-26.0543
-25.5735
-25.1485
-24.7874
-24.4876
-24.2426
-24.0446
-23.8864
-23.7616
-23.6646
-23.5906
-23.5359
-23.4974
-23.4729
-23.4612
-23.4619
-23.4753
-23.5026
-23.5461
-23.6094
-23.697
-23.8147
-23.9693
-24.1679
-24.4158
-24.7118
-25.0393
-25.3465
-25.5434
-27.6337
-27.2483
-26.6753
-26.0792
-25.5402
-25.0825
-24.7064
-24.4023
-24.1594
-23.9666
-23.815
-23.6973
-23.607
-23.5389
-23.4891
-23.4541
-23.4318
-23.4209
-23.421
-23.4326
-23.4567
-23.4957
-23.5537
-23.6363
-23.7499
-23.9037
-24.1085
-24.3741
-24.7065
-25.097
-25.4865
-25.7503
-28.0531
-27.5238
-26.7955
-26.0889
-25.4858
-24.9953
-24.6064
-24.3006
-24.0625
-23.8772
-23.7339
-23.6249
-23.5426
-23.4814
-23.4373
-23.4065
-23.3865
-23.3765
-23.3761
-23.3854
-23.4057
-23.4392
-23.4906
-23.5664
-23.6738
-23.8242
-24.0325
-24.3146
-24.6855
-25.1537
-25.6569
-26.0221
-28.6041
-27.8484
-26.9094
-26.0721
-25.4023
-24.8819
-24.4846
-24.1811
-23.9514
-23.7762
-23.6432
-23.5447
-23.4717
-23.4184
-23.3809
-23.3548
-23.3375
-23.3286
-23.3274
-23.3342
-23.3501
-23.377
-23.4201
-23.4875
-23.5857
-23.7291
-23.937
-24.2317
-24.639
-25.2005
-25.8607
-26.3841
-29.3435
-28.2182
-26.9971
-26.0128
-25.2807
-24.7369
-24.3386
-24.0421
-23.8257
-23.6637
-23.5428
-23.4571
-23.3949
-23.3503
-23.3206
-23.2999
-23.2852
-23.2775
-23.2756
-23.2797
-23.2907
-23.3095
-23.3425
-23.3998
-23.4852
-23.6167
-23.8187
-24.1196
-24.5529
-25.2217
-26.0978
-26.876
-30.3635
-28.6116
-27.0248
-25.8898
-25.1111
-24.5547
-24.1662
-23.8823
-23.6854
-23.5399
-23.4326
-23.3625
-23.3126
-23.2773
-23.2569
-23.2423
-23.2301
-23.2238
-23.2212
-23.2222
-23.2282
-23.2374
-23.2577
-23.304
-23.3721
-23.4856
-23.6745
-23.9734
-24.4069
-25.1901
-26.3584
-27.5616
-31.8209
-28.9633
-26.9389
-25.6769
-24.8852
-24.3296
-23.9666
-23.6996
-23.5312
-23.4054
-23.3119
-23.2615
-23.2253
-23.1994
-23.1904
-23.1828
-23.1721
-23.1678
-23.1644
-23.1621
-23.1635
-23.1611
-23.1649
-23.2013
-23.2463
-23.3343
-23.5015
-23.7922
-24.1723
-25.061
-26.6091
-28.5468
-33.9922
-29.1062
-26.6617
-25.3458
-24.5993
-24.0555
-23.7421
-23.4913
-23.3652
-23.2616
-23.1792
-23.1559
-23.1343
-23.1159
-23.1222
-23.1227
-23.1112
-23.1103
-23.1061
-23.0997
-23.0983
-23.0821
-23.0627
-23.0951
-23.1086
-23.162
-23.2965
-23.5874
-23.8094
-24.7659
-26.7615
-30.0153
-37.3845
-28.6381
-26.102
-24.8716
-24.2621
-23.723
-23.501
-23.2508
-23.1927
-23.1115
-23.0308
-23.0486
-23.0413
-23.025
-23.0544
-23.0645
-23.0464
-23.0525
-23.0472
-23.0348
-23.0358
-23.0026
-22.9465
-22.9926
-22.9596
-22.9684
-23.0513
-23.3989
-23.2618
-24.2101
-26.5982
-32.2967
)
;

boundaryField
{
    left
    {
        type            calculated;
        value           nonuniform List<scalar> 
16
(
-26.441
-26.4665
-26.5185
-26.5993
-26.7122
-26.8627
-27.0583
-27.31
-27.6337
-28.0531
-28.6041
-29.3435
-30.3635
-31.8209
-33.9922
-37.3845
)
;
    }
    right
    {
        type            calculated;
        value           nonuniform List<scalar> 
16
(
-25.0049
-25.0202
-25.0516
-25.1006
-25.1697
-25.2626
-25.3846
-25.5434
-25.7503
-26.0221
-26.3841
-26.876
-27.5616
-28.5468
-30.0153
-32.2967
)
;
    }
    interface
    {
        type            calculated;
        value           nonuniform List<scalar> 
32
(
-39.4685
-28.1806
-25.7398
-24.5962
-24.0826
-23.5406
-23.3779
-23.1214
-23.1056
-23.0352
-22.9518
-22.9951
-22.9945
-22.9774
-23.0208
-23.0362
-23.0127
-23.0236
-23.0177
-23.0017
-23.0056
-22.9631
-22.8839
-22.9434
-22.8824
-22.8661
-22.917
-23.316
-22.9335
-23.8536
-26.3993
-33.6937
)
;
    }
    bottom
    {
        type            calculated;
        value           nonuniform List<scalar> 
32
(
-26.4347
-26.3306
-26.1384
-25.8844
-25.5968
-25.3004
-25.0136
-24.7487
-24.5121
-24.3066
-24.1323
-23.9876
-23.8702
-23.7775
-23.7071
-23.6567
-23.6247
-23.6101
-23.6124
-23.6317
-23.6688
-23.7249
-23.8013
-23.8994
-24.0196
-24.1613
-24.3211
-24.4922
-24.6629
-24.8173
-24.936
-25.0011
)
;
    }
    defaultFaces
    {
        type            empty;
    }
}


// ************************************************************************* //
