/*--------------------------------*- C++ -*----------------------------------*\
| =========                 |                                                 |
| \\      /  F ield         | OpenFOAM: The Open Source CFD Toolbox           |
|  \\    /   O peration     | Version:  4.1                                   |
|   \\  /    A nd           | Web:      www.OpenFOAM.org                      |
|    \\/     M anipulation  |                                                 |
\*---------------------------------------------------------------------------*/
FoamFile
{
    version     2.0;
    format      ascii;
    class       volScalarField;
    location    "1";
    object      gradTx;
}
// * * * * * * * * * * * * * * * * * * * * * * * * * * * * * * * * * * * * * //

dimensions      [0 -1 0 1 0 0 0];

internalField   nonuniform List<scalar> 
512
(
0.0130154
0.0370398
0.0557753
0.0677054
0.0730011
0.0728902
0.0689661
0.0626917
0.0552513
0.0474715
0.0398762
0.0327621
0.0262623
0.0203968
0.0151099
0.010297
0.00582378
0.00154064
-0.00270549
-0.00706076
-0.011651
-0.0165615
-0.0218066
-0.0272883
-0.0327437
-0.0376857
-0.041355
-0.0427271
-0.0406427
-0.0341372
-0.0229696
-0.00812715
0.0395511
0.112446
0.169035
0.20478
0.220364
0.219635
0.207493
0.188379
0.16585
0.142377
0.119516
0.0981395
0.0786344
0.0610511
0.0452158
0.0308099
0.0174267
0.00461469
-0.00808797
-0.0211231
-0.0348734
-0.049602
-0.0653624
-0.0818738
-0.0983626
-0.113379
-0.124644
-0.129051
-0.123039
-0.103583
-0.0698326
-0.0247369
0.0676484
0.191939
0.287526
0.346912
0.371828
0.369266
0.347786
0.314953
0.276716
0.237156
0.198807
0.163069
0.130544
0.101284
0.0749779
0.0510782
0.0288953
0.00766737
-0.0133838
-0.0350056
-0.0578523
-0.0823878
-0.108736
-0.136473
-0.164359
-0.190023
-0.209663
-0.217997
-0.208815
-0.176619
-0.119545
-0.0424462
0.098517
0.27862
0.415102
0.497696
0.530196
0.523684
0.490956
0.442931
0.387965
0.331676
0.277482
0.22723
0.181668
0.140806
0.104161
0.0709355
0.040139
0.0106856
-0.0185314
-0.04858
-0.0804109
-0.114726
-0.151772
-0.191048
-0.23093
-0.268196
-0.297536
-0.311352
-0.300376
-0.255905
-0.174279
-0.0621059
0.133652
0.376217
0.556193
0.661055
0.698362
0.684737
0.638004
0.572717
0.499615
0.425731
0.355225
0.290264
0.231659
0.179309
0.132519
0.0902105
0.051066
0.013658
-0.0234633
-0.0617067
-0.102351
-0.14639
-0.194264
-0.24549
-0.298182
-0.348385
-0.389329
-0.41095
-0.400357
-0.344518
-0.236661
-0.0847703
0.17502
0.489476
0.716114
0.841374
0.879317
0.854167
0.789762
0.704543
0.611547
0.519019
0.43165
0.35177
0.28014
0.216469
0.159797
0.108726
0.0615826
0.0165751
-0.0281055
-0.0742306
-0.123448
-0.177106
-0.235936
-0.299593
-0.36609
-0.430932
-0.486004
-0.518657
-0.511705
-0.446182
-0.310054
-0.111832
0.225353
0.624706
0.901441
1.04362
1.07611
1.03354
0.94681
0.838419
0.723468
0.611111
0.506285
0.411286
0.326696
0.251935
0.18572
0.126297
0.0715937
0.0194299
-0.0323756
-0.0859789
-0.143439
-0.206543
-0.276424
-0.353019
-0.434456
-0.515975
-0.588348
-0.636332
-0.63776
-0.565544
-0.398963
-0.145229
0.288612
0.790616
1.12048
1.27339
1.29177
1.22409
1.10938
0.974055
0.834864
0.701432
0.578563
0.468288
0.370871
0.285331
0.210001
0.142732
0.0810033
0.0222178
-0.0361837
-0.0967603
-0.162027
-0.234302
-0.315261
-0.405273
-0.502852
-0.603369
-0.696862
-0.765719
-0.782295
-0.708544
-0.509643
-0.187776
0.370789
0.999604
1.38383
1.53695
1.52904
1.42659
1.27723
1.1108
0.944965
0.789245
0.64781
0.52218
0.412168
0.316252
0.232332
0.157833
0.0897156
0.0249358
-0.0394337
-0.106366
-0.17887
-0.259911
-0.351867
-0.455681
-0.570575
-0.692593
-0.81162
-0.908259
-0.949482
-0.882878
-0.651049
-0.243717
0.481286
1.2698
1.70507
1.84094
1.79008
1.64102
1.44951
1.24756
1.0527
0.873638
0.713242
0.572287
0.450046
0.344264
0.25238
0.171398
0.0976374
0.0275808
-0.0420267
-0.114577
-0.193589
-0.282814
-0.385546
-0.503373
-0.636587
-0.782649
-0.932068
-1.06474
-1.1437
-1.09857
-0.83633
-0.31967
0.635434
1.62841
2.10126
2.19181
2.07585
1.86629
1.62458
1.38273
1.15668
0.953537
0.773968
0.617852
0.483927
0.368901
0.269786
0.183223
0.104682
0.0301465
-0.0438665
-0.121169
-0.205766
-0.302367
-0.415495
-0.547279
-0.699464
-0.871958
-1.0568
-1.23474
-1.36902
-1.36859
-1.08524
-0.4263
0.859175
2.11718
2.59317
2.59449
2.38521
2.09986
1.79992
1.51416
1.25513
1.02773
0.829001
0.658021
0.513212
0.389671
0.284143
0.193113
0.110778
0.0326168
-0.0448657
-0.125935
-0.214956
-0.31782
-0.44083
-0.586154
-0.757352
-0.95828
-1.18338
-1.41575
-1.62812
-1.70942
-1.42811
-0.581366
1.19808
2.80161
3.20395
3.05001
2.71382
2.33735
1.97195
1.63915
1.34589
1.09497
0.877283
0.69181
0.537322
0.406055
0.294973
0.200906
0.115886
0.034954
-0.0449495
-0.128713
-0.220701
-0.32827
-0.46064
-0.618636
-0.8079
-1.03867
-1.30826
-1.60187
-1.92007
-2.14101
-1.91242
-0.815445
1.73514
3.78654
3.95406
3.55131
3.05276
2.57235
2.13612
1.75453
1.42632
1.15414
0.917714
0.718031
0.55578
0.41752
0.301652
0.206518
0.120032
0.0370725
-0.0440495
-0.129435
-0.22257
-0.33256
-0.474105
-0.643385
-0.848175
-1.10947
-1.42726
-1.78196
-2.23647
-2.68514
-2.61389
-1.18299
2.62687
5.24265
4.84715
4.07686
3.38747
2.79663
2.28695
1.85685
1.49302
1.20462
0.949189
0.735094
0.568412
0.423529
0.303261
0.210058
0.123362
0.0387742
-0.0420625
-0.128219
-0.220246
-0.329002
-0.480704
-0.659347
-0.874434
-1.16627
-1.53717
-1.93723
-2.55446
-3.35944
-3.65532
-1.78426
4.1781
7.45174
5.83429
4.58253
3.69789
3.00098
2.41823
1.94293
1.54117
1.24714
0.970575
0.740514
0.575775
0.423531
0.298222
0.212065
0.126235
0.03958
-0.0387261
-0.125537
-0.213764
-0.314754
-0.48064
-0.666296
-0.881623
-1.20345
-1.63995
-2.03839
-2.8257
-4.16119
-5.2386
-2.80992
)
;

boundaryField
{
    left
    {
        type            calculated;
        value           uniform 0;
    }
    right
    {
        type            calculated;
        value           uniform 0;
    }
    interface
    {
        type            calculated;
        value           nonuniform List<scalar> 
32
(
4.1781
7.45174
5.83429
4.58253
3.69789
3.00098
2.41823
1.94293
1.54117
1.24714
0.970575
0.740514
0.575775
0.423531
0.298222
0.212065
0.126235
0.03958
-0.0387261
-0.125537
-0.213764
-0.314754
-0.48064
-0.666296
-0.881623
-1.20345
-1.63995
-2.03839
-2.8257
-4.16119
-5.2386
-2.80992
)
;
    }
    bottom
    {
        type            calculated;
        value           nonuniform List<scalar> 
32
(
0.0130154
0.0370398
0.0557753
0.0677054
0.0730011
0.0728902
0.0689661
0.0626917
0.0552513
0.0474715
0.0398762
0.0327621
0.0262623
0.0203968
0.0151099
0.010297
0.00582378
0.00154064
-0.00270549
-0.00706076
-0.011651
-0.0165615
-0.0218066
-0.0272883
-0.0327437
-0.0376857
-0.041355
-0.0427271
-0.0406427
-0.0341372
-0.0229696
-0.00812715
)
;
    }
    defaultFaces
    {
        type            empty;
    }
}


// ************************************************************************* //
