/*--------------------------------*- C++ -*----------------------------------*\
| =========                 |                                                 |
| \\      /  F ield         | OpenFOAM: The Open Source CFD Toolbox           |
|  \\    /   O peration     | Version:  4.1                                   |
|   \\  /    A nd           | Web:      www.OpenFOAM.org                      |
|    \\/     M anipulation  |                                                 |
\*---------------------------------------------------------------------------*/
FoamFile
{
    version     2.0;
    format      ascii;
    class       volScalarField;
    location    "1";
    object      T;
}
// * * * * * * * * * * * * * * * * * * * * * * * * * * * * * * * * * * * * * //

dimensions      [0 0 0 1 0 0 0];

internalField   nonuniform List<scalar> 
512
(
309.793
309.794
309.796
309.798
309.8
309.802
309.805
309.807
309.808
309.81
309.811
309.813
309.814
309.814
309.815
309.815
309.815
309.816
309.816
309.815
309.815
309.815
309.814
309.813
309.812
309.811
309.81
309.809
309.807
309.806
309.805
309.805
309.38
309.383
309.387
309.393
309.4
309.407
309.414
309.42
309.426
309.43
309.434
309.438
309.441
309.443
309.444
309.446
309.446
309.447
309.447
309.446
309.445
309.444
309.442
309.44
309.437
309.434
309.43
309.426
309.422
309.418
309.415
309.414
308.966
308.971
308.978
308.989
309
309.012
309.023
309.034
309.043
309.051
309.058
309.063
309.068
309.071
309.074
309.076
309.077
309.078
309.078
309.077
309.076
309.073
309.071
309.067
309.062
309.056
309.05
309.043
309.036
309.03
309.025
309.023
308.552
308.558
308.569
308.584
308.6
308.617
308.633
308.647
308.66
308.672
308.681
308.689
308.695
308.7
308.704
308.707
308.709
308.709
308.709
308.708
308.706
308.703
308.699
308.694
308.687
308.679
308.67
308.661
308.651
308.642
308.635
308.631
308.135
308.144
308.159
308.178
308.2
308.222
308.243
308.262
308.279
308.293
308.305
308.315
308.323
308.33
308.335
308.338
308.34
308.341
308.341
308.34
308.337
308.333
308.328
308.321
308.313
308.303
308.291
308.278
308.265
308.253
308.244
308.238
307.717
307.728
307.747
307.772
307.8
307.827
307.853
307.877
307.897
307.915
307.93
307.942
307.952
307.96
307.965
307.969
307.972
307.973
307.973
307.972
307.969
307.964
307.957
307.949
307.939
307.926
307.912
307.896
307.879
307.864
307.851
307.845
307.296
307.31
307.335
307.366
307.4
307.433
307.465
307.493
307.517
307.538
307.555
307.569
307.581
307.59
307.597
307.601
307.605
307.606
307.606
307.604
307.6
307.595
307.587
307.578
307.565
307.551
307.533
307.514
307.493
307.474
307.458
307.449
306.871
306.889
306.921
306.959
307
307.04
307.077
307.109
307.138
307.162
307.181
307.198
307.211
307.221
307.229
307.234
307.237
307.239
307.239
307.237
307.233
307.227
307.218
307.207
307.193
307.176
307.155
307.132
307.107
307.083
307.063
307.051
306.442
306.465
306.505
306.552
306.601
306.648
306.69
306.727
306.759
306.786
306.809
306.827
306.841
306.853
306.861
306.867
306.871
306.873
306.873
306.87
306.866
306.859
306.85
306.837
306.821
306.801
306.778
306.751
306.721
306.691
306.666
306.651
306.008
306.038
306.087
306.144
306.202
306.256
306.305
306.347
306.383
306.413
306.437
306.457
306.473
306.485
306.494
306.501
306.505
306.507
306.507
306.505
306.5
306.492
306.482
306.468
306.451
306.429
306.402
306.37
306.335
306.299
306.267
306.247
305.566
305.605
305.667
305.737
305.804
305.866
305.921
305.968
306.007
306.04
306.067
306.089
306.106
306.119
306.129
306.136
306.14
306.142
306.142
306.14
306.134
306.127
306.116
306.101
306.081
306.057
306.027
305.991
305.95
305.905
305.864
305.838
305.114
305.167
305.246
305.33
305.408
305.479
305.539
305.591
305.634
305.67
305.698
305.721
305.739
305.753
305.764
305.771
305.776
305.778
305.778
305.775
305.77
305.762
305.75
305.734
305.714
305.687
305.654
305.613
305.565
305.511
305.458
305.422
304.649
304.724
304.824
304.924
305.014
305.093
305.16
305.217
305.263
305.301
305.331
305.356
305.375
305.389
305.4
305.408
305.413
305.415
305.415
305.412
305.407
305.398
305.386
305.369
305.347
305.319
305.283
305.237
305.182
305.117
305.049
304.998
304.165
304.273
304.402
304.52
304.624
304.711
304.784
304.845
304.894
304.934
304.966
304.991
305.011
305.026
305.037
305.045
305.05
305.052
305.052
305.05
305.044
305.036
305.023
305.006
304.983
304.953
304.914
304.864
304.802
304.724
304.635
304.561
303.654
303.818
303.982
304.121
304.237
304.333
304.411
304.476
304.528
304.569
304.603
304.629
304.649
304.664
304.675
304.683
304.688
304.691
304.691
304.688
304.683
304.674
304.662
304.644
304.621
304.59
304.548
304.494
304.427
304.334
304.217
304.106
303.103
303.364
303.568
303.728
303.855
303.96
304.042
304.111
304.164
304.207
304.242
304.268
304.288
304.304
304.314
304.322
304.328
304.33
304.33
304.328
304.322
304.314
304.303
304.284
304.261
304.229
304.186
304.127
304.058
303.95
303.798
303.623
)
;

boundaryField
{
    left
    {
        type            zeroGradient;
    }
    right
    {
        type            zeroGradient;
    }
    interface
    {
        type            fixedValue;
        value           nonuniform List<scalar> 
32
(
302.794
303.144
303.367
303.536
303.667
303.776
303.86
303.93
303.983
304.027
304.062
304.088
304.108
304.124
304.135
304.142
304.148
304.15
304.15
304.148
304.143
304.135
304.124
304.105
304.082
304.051
304.007
303.945
303.879
303.764
303.592
303.36
)
;
    }
    bottom
    {
        type            fixedValue;
        value           uniform 310;
    }
    defaultFaces
    {
        type            empty;
    }
}


// ************************************************************************* //
