/*--------------------------------*- C++ -*----------------------------------*\
| =========                 |                                                 |
| \\      /  F ield         | OpenFOAM: The Open Source CFD Toolbox           |
|  \\    /   O peration     | Version:  4.1                                   |
|   \\  /    A nd           | Web:      www.OpenFOAM.org                      |
|    \\/     M anipulation  |                                                 |
\*---------------------------------------------------------------------------*/
FoamFile
{
    version     2.0;
    format      ascii;
    class       volScalarField;
    location    "0.4";
    object      T;
}
// * * * * * * * * * * * * * * * * * * * * * * * * * * * * * * * * * * * * * //

dimensions      [0 0 0 1 0 0 0];

internalField   nonuniform List<scalar> 
12013
(
300
300
300
300
300
300
300
300
300
300
300
300
300
300
300.001
300.001
300.001
300.001
300.002
300.002
300.003
300.004
300.004
300.005
300.006
300.008
300.009
300.011
300.013
300.015
300.018
300.021
300.024
300.028
300.032
300.037
300.042
300.048
300.055
300.062
300.069
300.078
300.087
300.097
300.107
300.119
300.131
300.145
300.159
300.174
300.191
300.208
300.227
300.246
300.267
300.289
300.313
300.338
300.364
300.391
300.42
300.451
300.483
300.517
300.552
300.59
300.629
300.67
300.714
300.759
300.808
300.859
300.912
300.97
301.03
301.095
301.165
301.242
301.326
301.42
301.532
300
300
300
300
300
300
300
300
300
300
300
300
300
300
300.001
300.001
300.001
300.001
300.002
300.002
300.003
300.004
300.004
300.005
300.006
300.008
300.009
300.011
300.013
300.015
300.018
300.021
300.024
300.028
300.032
300.037
300.042
300.048
300.055
300.062
300.069
300.078
300.087
300.097
300.107
300.119
300.131
300.145
300.159
300.174
300.191
300.208
300.227
300.246
300.267
300.289
300.313
300.337
300.363
300.391
300.42
300.45
300.482
300.516
300.552
300.589
300.628
300.669
300.713
300.758
300.806
300.857
300.91
300.967
301.027
301.092
301.161
301.235
301.316
301.405
301.503
300
300
300
300
300
300
300
300
300
300
300
300
300
300
300.001
300.001
300.001
300.001
300.002
300.002
300.003
300.003
300.004
300.005
300.006
300.008
300.009
300.011
300.013
300.015
300.018
300.021
300.024
300.028
300.032
300.037
300.042
300.048
300.055
300.062
300.069
300.078
300.087
300.096
300.107
300.119
300.131
300.144
300.159
300.174
300.19
300.208
300.226
300.246
300.267
300.289
300.312
300.337
300.363
300.39
300.419
300.449
300.481
300.515
300.55
300.587
300.626
300.667
300.71
300.755
300.803
300.853
300.906
300.962
301.021
301.083
301.15
301.221
301.298
301.379
301.464
300
300
300
300
300
300
300
300
300
300
300
300
300
300
300.001
300.001
300.001
300.001
300.002
300.002
300.003
300.003
300.004
300.005
300.006
300.008
300.009
300.011
300.013
300.015
300.018
300.021
300.024
300.028
300.032
300.037
300.042
300.048
300.054
300.061
300.069
300.077
300.086
300.096
300.107
300.118
300.131
300.144
300.158
300.174
300.19
300.207
300.226
300.245
300.266
300.288
300.311
300.336
300.361
300.389
300.417
300.448
300.479
300.513
300.548
300.584
300.623
300.664
300.706
300.751
300.797
300.847
300.898
300.953
301.01
301.071
301.134
301.201
301.272
301.345
301.421
300
300
300
300
300
300
300
300
300
300
300
300
300
300
300.001
300.001
300.001
300.001
300.002
300.002
300.003
300.003
300.004
300.005
300.006
300.008
300.009
300.011
300.013
300.015
300.018
300.021
300.024
300.028
300.032
300.037
300.042
300.048
300.054
300.061
300.069
300.077
300.086
300.096
300.107
300.118
300.13
300.144
300.158
300.173
300.189
300.206
300.225
300.244
300.265
300.287
300.31
300.334
300.36
300.387
300.415
300.445
300.477
300.51
300.544
300.58
300.618
300.658
300.7
300.744
300.79
300.838
300.888
300.94
300.996
301.053
301.113
301.176
301.24
301.307
301.373
300
300
300
300
300
300
300
300
300
300
300
300
300
300
300.001
300.001
300.001
300.001
300.002
300.002
300.003
300.003
300.004
300.005
300.006
300.008
300.009
300.011
300.013
300.015
300.018
300.021
300.024
300.028
300.032
300.037
300.042
300.048
300.054
300.061
300.069
300.077
300.086
300.096
300.106
300.117
300.13
300.143
300.157
300.172
300.188
300.205
300.223
300.243
300.263
300.285
300.308
300.332
300.357
300.384
300.412
300.442
300.473
300.505
300.539
300.575
300.612
300.651
300.692
300.735
300.779
300.826
300.874
300.924
300.977
301.031
301.087
301.145
301.204
301.264
301.324
300
300
300
300
300
300
300
300
300
300
300
300
300
300
300.001
300.001
300.001
300.001
300.002
300.002
300.003
300.003
300.004
300.005
300.006
300.008
300.009
300.011
300.013
300.015
300.018
300.021
300.024
300.028
300.032
300.037
300.042
300.047
300.054
300.061
300.068
300.076
300.085
300.095
300.105
300.117
300.129
300.142
300.156
300.171
300.187
300.204
300.222
300.241
300.261
300.282
300.305
300.329
300.354
300.38
300.408
300.437
300.468
300.499
300.533
300.568
300.604
300.642
300.682
300.723
300.766
300.811
300.857
300.905
300.954
301.005
301.057
301.11
301.164
301.218
301.272
300
300
300
300
300
300
300
300
300
300
300
300
300
300
300.001
300.001
300.001
300.001
300.002
300.002
300.003
300.003
300.004
300.005
300.006
300.008
300.009
300.011
300.013
300.015
300.018
300.021
300.024
300.028
300.032
300.036
300.041
300.047
300.053
300.06
300.068
300.076
300.085
300.094
300.105
300.116
300.128
300.141
300.155
300.169
300.185
300.202
300.22
300.238
300.258
300.279
300.302
300.325
300.35
300.376
300.403
300.431
300.461
300.492
300.525
300.559
300.594
300.631
300.669
300.709
300.75
300.792
300.836
300.881
300.928
300.975
301.023
301.072
301.121
301.17
301.218
300
300
300
300
300
300
300
300
300
300
300
300
300
300
300.001
300.001
300.001
300.001
300.002
300.002
300.003
300.003
300.004
300.005
300.006
300.008
300.009
300.011
300.013
300.015
300.018
300.02
300.024
300.027
300.031
300.036
300.041
300.047
300.053
300.06
300.067
300.075
300.084
300.093
300.104
300.115
300.126
300.139
300.153
300.167
300.183
300.199
300.217
300.235
300.255
300.276
300.298
300.321
300.345
300.37
300.397
300.424
300.453
300.484
300.515
300.548
300.582
300.617
300.654
300.692
300.731
300.771
300.812
300.855
300.898
300.942
300.986
301.03
301.075
301.119
301.163
300
300
300
300
300
300
300
300
300
300
300
300
300
300
300.001
300.001
300.001
300.001
300.002
300.002
300.003
300.003
300.004
300.005
300.006
300.007
300.009
300.011
300.013
300.015
300.017
300.02
300.023
300.027
300.031
300.036
300.041
300.046
300.052
300.059
300.066
300.074
300.083
300.092
300.102
300.113
300.125
300.137
300.151
300.165
300.18
300.196
300.214
300.232
300.251
300.271
300.293
300.315
300.339
300.363
300.389
300.416
300.444
300.473
300.503
300.535
300.568
300.601
300.636
300.672
300.709
300.747
300.785
300.825
300.865
300.905
300.946
300.986
301.027
301.067
301.106
300
300
300
300
300
300
300
300
300
300
300
300
300
300
300.001
300.001
300.001
300.001
300.002
300.002
300.003
300.003
300.004
300.005
300.006
300.007
300.009
300.011
300.012
300.015
300.017
300.02
300.023
300.027
300.031
300.035
300.04
300.046
300.052
300.058
300.065
300.073
300.082
300.091
300.101
300.111
300.123
300.135
300.148
300.162
300.177
300.193
300.21
300.227
300.246
300.266
300.287
300.308
300.331
300.355
300.38
300.406
300.433
300.461
300.49
300.52
300.551
300.583
300.616
300.65
300.684
300.719
300.755
300.792
300.828
300.865
300.903
300.94
300.976
301.013
301.049
300
300
300
300
300
300
300
300
300
300
300
300
300
300
300.001
300.001
300.001
300.001
300.002
300.002
300.003
300.003
300.004
300.005
300.006
300.007
300.009
300.01
300.012
300.014
300.017
300.02
300.023
300.026
300.03
300.035
300.04
300.045
300.051
300.057
300.064
300.072
300.08
300.089
300.099
300.109
300.12
300.132
300.145
300.159
300.173
300.189
300.205
300.222
300.24
300.26
300.28
300.301
300.322
300.345
300.369
300.394
300.42
300.447
300.474
300.503
300.532
300.562
300.593
300.624
300.657
300.689
300.722
300.756
300.79
300.823
300.857
300.891
300.924
300.957
300.989
300
300
300
300
300
300
300
300
300
300
300
300
300
300
300.001
300.001
300.001
300.001
300.002
300.002
300.003
300.003
300.004
300.005
300.006
300.007
300.009
300.01
300.012
300.014
300.017
300.019
300.022
300.026
300.03
300.034
300.039
300.044
300.05
300.056
300.063
300.07
300.078
300.087
300.097
300.107
300.118
300.129
300.142
300.155
300.169
300.184
300.2
300.216
300.234
300.252
300.271
300.291
300.312
300.334
300.357
300.381
300.405
300.43
300.456
300.483
300.511
300.539
300.567
300.597
300.627
300.657
300.687
300.718
300.748
300.779
300.81
300.84
300.871
300.9
300.93
300
300
300
300
300
300
300
300
300
300
300
300
300
300
300.001
300.001
300.001
300.001
300.002
300.002
300.003
300.003
300.004
300.005
300.006
300.007
300.008
300.01
300.012
300.014
300.016
300.019
300.022
300.025
300.029
300.033
300.038
300.043
300.049
300.055
300.061
300.069
300.076
300.085
300.094
300.104
300.114
300.126
300.138
300.151
300.164
300.178
300.193
300.209
300.226
300.244
300.262
300.281
300.301
300.322
300.343
300.366
300.389
300.412
300.437
300.462
300.487
300.513
300.54
300.567
300.594
300.622
300.65
300.677
300.705
300.733
300.761
300.788
300.816
300.842
300.869
300
300
300
300
300
300
300
300
300
300
300
300
300
300
300.001
300.001
300.001
300.001
300.002
300.002
300.002
300.003
300.004
300.005
300.006
300.007
300.008
300.01
300.012
300.014
300.016
300.018
300.021
300.025
300.028
300.032
300.037
300.042
300.047
300.053
300.06
300.067
300.074
300.082
300.091
300.101
300.111
300.122
300.133
300.145
300.158
300.172
300.186
300.201
300.217
300.234
300.251
300.269
300.288
300.308
300.328
300.349
300.37
300.392
300.415
300.438
300.462
300.486
300.51
300.535
300.56
300.585
300.61
300.635
300.661
300.686
300.711
300.735
300.76
300.784
300.808
300
300
300
300
300
300
300
300
300
300
300
300
300
300
300
300.001
300.001
300.001
300.002
300.002
300.002
300.003
300.004
300.005
300.005
300.007
300.008
300.009
300.011
300.013
300.015
300.018
300.021
300.024
300.027
300.031
300.036
300.04
300.046
300.051
300.057
300.064
300.072
300.079
300.088
300.097
300.107
300.117
300.128
300.139
300.152
300.165
300.178
300.193
300.208
300.223
300.24
300.257
300.274
300.292
300.311
300.33
300.35
300.371
300.392
300.413
300.434
300.456
300.479
300.501
300.524
300.546
300.569
300.592
300.615
300.637
300.659
300.682
300.704
300.725
300.746
300
300
300
300
300
300
300
300
300
300
300
300
300
300
300
300.001
300.001
300.001
300.001
300.002
300.002
300.003
300.004
300.004
300.005
300.006
300.008
300.009
300.011
300.013
300.015
300.017
300.02
300.023
300.026
300.03
300.034
300.039
300.044
300.049
300.055
300.062
300.069
300.076
300.084
300.093
300.102
300.112
300.122
300.133
300.144
300.157
300.169
300.183
300.197
300.211
300.227
300.242
300.259
300.275
300.293
300.311
300.329
300.347
300.366
300.386
300.405
300.425
300.445
300.466
300.486
300.506
300.527
300.547
300.568
300.588
300.608
300.627
300.647
300.666
300.685
300
300
300
300
300
300
300
300
300
300
300
300
300
300
300
300.001
300.001
300.001
300.001
300.002
300.002
300.003
300.003
300.004
300.005
300.006
300.007
300.009
300.01
300.012
300.014
300.017
300.019
300.022
300.025
300.029
300.033
300.037
300.042
300.047
300.053
300.059
300.065
300.072
300.08
300.088
300.096
300.106
300.115
300.126
300.136
300.148
300.16
300.172
300.185
300.199
300.213
300.227
300.242
300.257
300.273
300.289
300.306
300.323
300.34
300.358
300.375
300.393
300.411
300.429
300.447
300.466
300.484
300.502
300.52
300.538
300.555
300.573
300.59
300.607
300.624
300
300
300
300
300
300
300
300
300
300
300
300
300
300
300
300.001
300.001
300.001
300.001
300.002
300.002
300.003
300.003
300.004
300.005
300.006
300.007
300.008
300.01
300.012
300.013
300.016
300.018
300.021
300.024
300.027
300.031
300.035
300.04
300.044
300.05
300.055
300.061
300.068
300.075
300.083
300.091
300.099
300.108
300.118
300.128
300.138
300.149
300.16
300.172
300.185
300.197
300.211
300.224
300.238
300.253
300.267
300.282
300.297
300.313
300.328
300.344
300.36
300.376
300.392
300.408
300.424
300.44
300.456
300.472
300.488
300.504
300.519
300.534
300.549
300.564
300
300
300
300
300
300
300
300
300
300
300
300
300
300
300
300.001
300.001
300.001
300.001
300.002
300.002
300.002
300.003
300.004
300.005
300.006
300.007
300.008
300.009
300.011
300.013
300.015
300.017
300.02
300.023
300.026
300.029
300.033
300.037
300.042
300.046
300.052
300.057
300.064
300.07
300.077
300.084
300.092
300.1
300.109
300.118
300.128
300.138
300.148
300.159
300.17
300.182
300.193
300.206
300.218
300.231
300.244
300.257
300.271
300.285
300.298
300.312
300.326
300.34
300.355
300.369
300.383
300.397
300.411
300.425
300.439
300.452
300.466
300.479
300.492
300.505
300
300
300
300
300
300
300
300
300
300
300
300
300
300
300
300
300.001
300.001
300.001
300.001
300.002
300.002
300.003
300.004
300.004
300.005
300.006
300.007
300.009
300.01
300.012
300.014
300.016
300.018
300.021
300.024
300.027
300.031
300.034
300.039
300.043
300.048
300.053
300.059
300.065
300.071
300.078
300.085
300.092
300.1
300.108
300.117
300.126
300.135
300.145
300.155
300.165
300.176
300.186
300.198
300.209
300.22
300.232
300.244
300.256
300.268
300.28
300.293
300.305
300.317
300.329
300.342
300.354
300.366
300.378
300.39
300.402
300.413
300.425
300.436
300.447
300
300
300
300
300
300
300
300
300
300
300
300
300
300
300
300
300.001
300.001
300.001
300.001
300.002
300.002
300.003
300.003
300.004
300.005
300.006
300.007
300.008
300.009
300.011
300.013
300.015
300.017
300.019
300.022
300.025
300.028
300.032
300.035
300.039
300.044
300.049
300.054
300.059
300.065
300.071
300.077
300.084
300.091
300.098
300.106
300.114
300.122
300.13
300.139
300.148
300.157
300.167
300.177
300.187
300.197
300.207
300.217
300.228
300.238
300.249
300.259
300.27
300.28
300.291
300.301
300.312
300.322
300.333
300.343
300.353
300.363
300.373
300.382
300.392
300
300
300
300
300
300
300
300
300
300
300
300
300
300
300
300
300.001
300.001
300.001
300.001
300.002
300.002
300.002
300.003
300.004
300.004
300.005
300.006
300.007
300.009
300.01
300.012
300.013
300.015
300.018
300.02
300.023
300.025
300.029
300.032
300.036
300.04
300.044
300.048
300.053
300.058
300.063
300.069
300.075
300.081
300.087
300.094
300.101
300.108
300.116
300.123
300.131
300.139
300.147
300.156
300.164
300.173
300.182
300.191
300.199
300.208
300.217
300.226
300.235
300.244
300.253
300.262
300.271
300.28
300.289
300.298
300.306
300.315
300.323
300.331
300.339
300
300
300
300
300
300
300
300
300
300
300
300
300
300
300
300
300
300.001
300.001
300.001
300.001
300.002
300.002
300.003
300.003
300.004
300.005
300.006
300.007
300.008
300.009
300.01
300.012
300.014
300.016
300.018
300.02
300.023
300.025
300.028
300.032
300.035
300.039
300.043
300.047
300.051
300.056
300.061
300.066
300.071
300.077
300.083
300.089
300.095
300.101
300.108
300.114
300.121
300.128
300.135
300.143
300.15
300.157
300.165
300.172
300.18
300.187
300.195
300.202
300.21
300.218
300.225
300.233
300.24
300.247
300.254
300.262
300.269
300.276
300.283
300.289
300
300
300
300
300
300
300
300
300
300
300
300
300
300
300
300
300
300.001
300.001
300.001
300.001
300.002
300.002
300.002
300.003
300.003
300.004
300.005
300.006
300.007
300.008
300.009
300.011
300.012
300.014
300.016
300.018
300.02
300.022
300.025
300.028
300.031
300.034
300.037
300.041
300.045
300.049
300.053
300.057
300.062
300.066
300.071
300.076
300.081
300.087
300.092
300.098
300.104
300.11
300.116
300.122
300.128
300.134
300.14
300.146
300.152
300.159
300.165
300.171
300.178
300.184
300.19
300.196
300.202
300.208
300.214
300.22
300.226
300.232
300.237
300.243
300
300
300
300
300
300
300
300
300
300
300
300
300
300
300
300
300
300
300.001
300.001
300.001
300.001
300.002
300.002
300.002
300.003
300.004
300.004
300.005
300.006
300.007
300.008
300.009
300.01
300.012
300.013
300.015
300.017
300.019
300.021
300.024
300.026
300.029
300.032
300.035
300.038
300.041
300.045
300.048
300.052
300.056
300.06
300.064
300.069
300.073
300.078
300.082
300.087
300.092
300.097
300.102
300.107
300.112
300.117
300.122
300.127
300.132
300.137
300.142
300.147
300.152
300.157
300.162
300.167
300.172
300.177
300.182
300.187
300.191
300.196
300.2
300
300
300
300
300
300
300
300
300
300
300
300
300
300
300
300
300
300
300
300.001
300.001
300.001
300.001
300.002
300.002
300.002
300.003
300.004
300.004
300.005
300.006
300.007
300.008
300.009
300.01
300.011
300.013
300.014
300.016
300.018
300.02
300.022
300.024
300.027
300.029
300.032
300.034
300.037
300.04
300.043
300.047
300.05
300.053
300.057
300.06
300.064
300.068
300.072
300.075
300.079
300.083
300.087
300.091
300.095
300.099
300.104
300.108
300.112
300.116
300.12
300.124
300.128
300.132
300.136
300.14
300.143
300.147
300.151
300.155
300.158
300.162
300
300
300
300
300
300
300
300
300
300
300
300
300
300
300
300
300
300
300
300
300.001
300.001
300.001
300.001
300.002
300.002
300.002
300.003
300.003
300.004
300.005
300.005
300.006
300.007
300.008
300.009
300.011
300.012
300.013
300.015
300.016
300.018
300.02
300.022
300.024
300.026
300.028
300.03
300.033
300.035
300.038
300.04
300.043
300.046
300.049
300.051
300.054
300.057
300.06
300.064
300.067
300.07
300.073
300.076
300.079
300.082
300.086
300.089
300.092
300.095
300.098
300.101
300.105
300.108
300.111
300.114
300.117
300.12
300.122
300.125
300.128
300
300
300
300
300
300
300
300
300
300
300
300
300
300
300
300
300
300
300
300
300
300.001
300.001
300.001
300.001
300.002
300.002
300.002
300.003
300.003
300.004
300.004
300.005
300.006
300.007
300.007
300.008
300.009
300.011
300.012
300.013
300.014
300.016
300.017
300.019
300.02
300.022
300.024
300.026
300.028
300.03
300.032
300.034
300.036
300.038
300.04
300.043
300.045
300.047
300.05
300.052
300.054
300.057
300.059
300.062
300.064
300.066
300.069
300.071
300.074
300.076
300.078
300.081
300.083
300.085
300.088
300.09
300.092
300.094
300.097
300.099
300
300
300
300
300
300
300
300
300
300
300
300
300
300
300
300
300
300
300
300
300
300
300.001
300.001
300.001
300.001
300.001
300.002
300.002
300.002
300.003
300.003
300.004
300.004
300.005
300.006
300.006
300.007
300.008
300.009
300.01
300.011
300.012
300.013
300.014
300.016
300.017
300.018
300.02
300.021
300.023
300.024
300.026
300.027
300.029
300.031
300.032
300.034
300.036
300.038
300.039
300.041
300.043
300.045
300.046
300.048
300.05
300.052
300.054
300.055
300.057
300.059
300.061
300.062
300.064
300.066
300.067
300.069
300.071
300.072
300.074
300
300
300
300
300
300
300
300
300
300
300
300
300
300
300
300
300
300
300
300
300
300
300
300
300.001
300.001
300.001
300.001
300.001
300.002
300.002
300.002
300.003
300.003
300.004
300.004
300.005
300.005
300.006
300.007
300.007
300.008
300.009
300.01
300.011
300.012
300.012
300.013
300.014
300.016
300.017
300.018
300.019
300.02
300.021
300.022
300.024
300.025
300.026
300.027
300.029
300.03
300.031
300.033
300.034
300.035
300.036
300.038
300.039
300.04
300.042
300.043
300.044
300.045
300.047
300.048
300.049
300.05
300.051
300.052
300.054
300
300
300
300
300
300
300
300
300
300
300
300
300
300
300
300
300
300
300
300
300
300
300
300
300
300
300.001
300.001
300.001
300.001
300.001
300.002
300.002
300.002
300.003
300.003
300.003
300.004
300.004
300.005
300.005
300.006
300.006
300.007
300.007
300.008
300.009
300.009
300.01
300.011
300.012
300.013
300.013
300.014
300.015
300.016
300.017
300.018
300.018
300.019
300.02
300.021
300.022
300.023
300.024
300.025
300.026
300.026
300.027
300.028
300.029
300.03
300.031
300.032
300.033
300.033
300.034
300.035
300.036
300.037
300.037
300
300
300
300
300
300
300
300
300
300
300
300
300
300
300
300
300
300
300
300
300
300
300
300
300
300
300
300
300.001
300.001
300.001
300.001
300.001
300.001
300.002
300.002
300.002
300.002
300.003
300.003
300.003
300.004
300.004
300.005
300.005
300.005
300.006
300.006
300.007
300.007
300.008
300.008
300.009
300.009
300.01
300.011
300.011
300.012
300.012
300.013
300.014
300.014
300.015
300.015
300.016
300.017
300.017
300.018
300.018
300.019
300.02
300.02
300.021
300.021
300.022
300.022
300.023
300.023
300.024
300.025
300.025
300
300
300
300
300
300
300
300
300
300
300
300
300
300
300
300
300
300
300
300
300
300
300
300
300
300
300
300
300
300
300
300
300.001
300.001
300.001
300.001
300.001
300.001
300.002
300.002
300.002
300.002
300.003
300.003
300.003
300.003
300.004
300.004
300.004
300.005
300.005
300.005
300.006
300.006
300.006
300.007
300.007
300.007
300.008
300.008
300.009
300.009
300.009
300.01
300.01
300.011
300.011
300.011
300.012
300.012
300.012
300.013
300.013
300.014
300.014
300.014
300.015
300.015
300.015
300.016
300.016
300
300
300
300
300
300
300
300
300
300
300
300
300
300
300
300
300
300
300
300
300
300
300
300
300
300
300
300
300
300
300
300
300
300
300
300
300.001
300.001
300.001
300.001
300.001
300.001
300.001
300.002
300.002
300.002
300.002
300.002
300.002
300.003
300.003
300.003
300.003
300.003
300.004
300.004
300.004
300.004
300.005
300.005
300.005
300.005
300.006
300.006
300.006
300.006
300.006
300.007
300.007
300.007
300.007
300.008
300.008
300.008
300.008
300.008
300.009
300.009
300.009
300.009
300.01
300
300
300
300
300
300
300
300
300
300
300
300
300
300
300
300
300
300
300
300
300
300
300
300
300
300
300
300
300
300
300
300
300
300
300
300
300
300
300
300
300
300
300.001
300.001
300.001
300.001
300.001
300.001
300.001
300.001
300.001
300.002
300.002
300.002
300.002
300.002
300.002
300.002
300.002
300.003
300.003
300.003
300.003
300.003
300.003
300.003
300.003
300.004
300.004
300.004
300.004
300.004
300.004
300.004
300.005
300.005
300.005
300.005
300.005
300.005
300.005
300
300
300
300
300
300
300
300
300
300
300
300
300
300
300
300
300
299.999
299.999
299.999
299.999
299.999
299.999
299.999
299.999
299.999
299.999
300
300
300
300
300
300
300
300
300
300
300
300
300
300
300
300
300
300
300
300
300
300
300
300
300.001
300.001
300.001
300.001
300.001
300.001
300.001
300.001
300.001
300.001
300.001
300.001
300.001
300.001
300.002
300.002
300.002
300.002
300.002
300.002
300.002
300.002
300.002
300.002
300.002
300.002
300.002
300.002
300.002
300.003
300
300
300
300
300
300
300
300
300
300
300
300
300
300
300
299.999
299.999
299.999
299.999
299.999
299.999
299.999
299.999
299.999
299.999
299.999
299.999
299.999
299.999
299.999
299.999
299.999
299.999
299.999
299.999
299.999
300
300
300
300
300
300
300
300
300
300
300
300
300
300
300
300
300
300
300
300
300
300
300
300
300
300
300
300
300
300
300
300
300.001
300.001
300.001
300.001
300.001
300.001
300.001
300.001
300.001
300.001
300.001
300.001
300.001
300
300
300
300
300
300
300
300
300
300
300
300
300
300
299.999
299.999
299.999
299.999
299.999
299.999
299.999
299.999
299.999
299.999
299.999
299.999
299.999
299.999
299.999
299.999
299.999
299.999
299.999
299.999
299.999
299.999
299.999
299.999
299.999
299.999
299.999
299.999
299.999
299.999
299.999
299.999
299.999
299.999
300
300
300
300
300
300
300
300
300
300
300
300
300
300
300
300
300
300
300
300
300
300
300
300
300
300
300
300
300
300
300
300
300
300
300
300
300
300
300
300
300
300
300
300
300
300
299.999
299.999
299.999
299.999
299.999
299.999
299.999
299.999
299.999
299.999
299.999
299.999
299.999
299.999
299.999
299.999
299.999
299.999
299.999
299.999
299.999
299.999
299.999
299.999
299.999
299.999
299.999
299.999
299.999
299.999
299.999
299.999
299.999
299.999
299.999
299.999
299.999
299.999
299.999
299.999
299.999
299.999
299.999
299.999
299.999
299.999
299.999
299.999
299.999
299.999
299.999
299.999
299.999
299.999
299.999
300
300
300
300
300
300
300
300
300
300
300
300
300
300
300
300
300
300
300
300
300
300
300
300
300
300
299.999
299.999
299.999
299.999
299.999
299.999
299.999
299.999
299.999
299.999
299.999
299.999
299.999
299.999
299.999
299.999
299.999
299.999
299.999
299.999
299.999
299.999
299.999
299.999
299.999
299.999
299.999
299.999
299.999
299.999
299.999
299.999
299.999
299.999
299.999
299.999
299.999
299.999
299.999
299.999
299.999
299.999
299.999
299.999
299.999
299.999
299.999
299.999
299.999
299.999
299.999
299.999
299.999
299.999
299.999
299.999
299.999
299.999
299.999
299.999
299.999
299.999
299.999
299.999
299.999
299.999
299.999
299.999
301.675
301.786
301.88
301.96
302.032
302.096
302.153
302.204
302.25
302.289
302.321
302.345
302.357
302.375
302.396
302.418
302.44
302.462
302.483
302.503
302.522
302.539
302.554
302.57
302.586
302.603
302.619
302.635
302.65
302.665
302.679
302.692
302.704
302.716
302.728
302.74
302.752
302.764
302.775
302.786
302.796
302.805
302.815
302.824
302.833
302.842
302.85
302.858
302.865
302.872
302.879
302.886
302.893
302.899
302.905
302.911
302.917
302.923
302.928
302.933
302.938
302.942
302.947
302.951
302.955
302.959
302.962
302.966
302.969
302.973
302.976
302.979
302.982
302.984
302.987
302.989
302.992
302.994
302.996
302.998
303
303.001
303.003
303.005
303.006
303.007
303.009
303.01
303.011
303.012
303.013
303.014
303.015
303.016
303.017
303.018
303.018
303.019
303.019
303.02
303.021
303.021
303.021
303.022
303.022
303.022
303.023
303.023
303.023
303.023
303.023
303.024
303.024
303.024
303.024
303.024
303.024
303.023
303.023
303.023
303.023
303.023
303.022
303.022
303.021
303.021
303.02
303.02
303.019
303.018
303.017
303.015
303.014
303.012
303.011
303.009
303.007
303.005
303.002
302.999
302.995
302.991
302.986
302.98
302.974
302.966
302.957
302.947
302.936
302.921
302.901
302.879
302.856
302.831
302.798
302.759
302.721
302.66
302.604
302.448
302.19
301.61
301.708
301.796
301.874
301.944
302.007
302.064
302.114
302.16
302.199
302.233
302.26
302.281
302.302
302.324
302.347
302.369
302.391
302.412
302.433
302.452
302.47
302.486
302.503
302.52
302.536
302.552
302.568
302.583
302.598
302.612
302.626
302.638
302.651
302.663
302.675
302.687
302.699
302.71
302.721
302.731
302.741
302.75
302.759
302.768
302.777
302.785
302.793
302.801
302.808
302.815
302.822
302.828
302.835
302.841
302.847
302.853
302.858
302.864
302.869
302.873
302.878
302.882
302.886
302.89
302.894
302.898
302.901
302.905
302.908
302.911
302.914
302.917
302.92
302.922
302.925
302.927
302.929
302.931
302.933
302.935
302.937
302.938
302.94
302.941
302.942
302.944
302.945
302.946
302.947
302.948
302.949
302.95
302.951
302.952
302.952
302.953
302.954
302.954
302.955
302.955
302.956
302.956
302.957
302.957
302.957
302.957
302.958
302.958
302.958
302.958
302.958
302.958
302.958
302.958
302.958
302.958
302.958
302.958
302.958
302.957
302.957
302.957
302.956
302.956
302.956
302.955
302.954
302.954
302.953
302.951
302.95
302.949
302.947
302.946
302.944
302.942
302.94
302.937
302.934
302.93
302.926
302.921
302.915
302.909
302.901
302.893
302.883
302.871
302.856
302.837
302.816
302.792
302.766
302.733
302.694
302.652
302.59
302.521
302.366
302.111
301.553
301.638
301.718
301.791
301.858
301.919
301.974
302.024
302.069
302.109
302.144
302.174
302.2
302.224
302.248
302.271
302.294
302.316
302.338
302.359
302.378
302.397
302.415
302.432
302.449
302.466
302.482
302.498
302.513
302.528
302.543
302.556
302.569
302.582
302.594
302.607
302.618
302.63
302.641
302.652
302.662
302.672
302.682
302.691
302.7
302.709
302.717
302.725
302.733
302.74
302.747
302.754
302.76
302.767
302.773
302.779
302.785
302.79
302.795
302.8
302.805
302.81
302.814
302.818
302.822
302.826
302.83
302.833
302.837
302.84
302.843
302.846
302.849
302.851
302.854
302.856
302.858
302.861
302.863
302.864
302.866
302.868
302.869
302.871
302.872
302.874
302.875
302.876
302.877
302.878
302.879
302.88
302.881
302.882
302.883
302.883
302.884
302.885
302.885
302.886
302.886
302.887
302.887
302.888
302.888
302.888
302.888
302.889
302.889
302.889
302.889
302.889
302.889
302.889
302.889
302.889
302.889
302.889
302.889
302.889
302.888
302.888
302.888
302.887
302.887
302.887
302.886
302.885
302.885
302.884
302.883
302.881
302.88
302.879
302.877
302.876
302.874
302.871
302.869
302.865
302.862
302.858
302.853
302.847
302.841
302.833
302.825
302.815
302.803
302.788
302.769
302.748
302.724
302.698
302.664
302.625
302.58
302.516
302.438
302.282
302.033
301.496
301.571
301.643
301.711
301.774
301.832
301.885
301.934
301.979
302.019
302.055
302.087
302.115
302.142
302.167
302.192
302.216
302.238
302.26
302.282
302.302
302.321
302.339
302.357
302.375
302.391
302.408
302.424
302.44
302.455
302.469
302.483
302.496
302.509
302.522
302.534
302.546
302.558
302.569
302.58
302.59
302.6
302.61
302.619
302.628
302.637
302.645
302.653
302.661
302.668
302.675
302.682
302.689
302.695
302.701
302.707
302.713
302.718
302.724
302.729
302.733
302.738
302.742
302.747
302.75
302.754
302.758
302.761
302.765
302.768
302.771
302.774
302.777
302.779
302.782
302.784
302.786
302.788
302.79
302.792
302.794
302.796
302.797
302.799
302.8
302.801
302.802
302.804
302.805
302.806
302.807
302.808
302.809
302.809
302.81
302.811
302.811
302.812
302.813
302.813
302.814
302.814
302.814
302.815
302.815
302.815
302.816
302.816
302.816
302.816
302.816
302.816
302.816
302.816
302.816
302.816
302.816
302.816
302.816
302.816
302.816
302.815
302.815
302.815
302.814
302.814
302.813
302.813
302.812
302.811
302.81
302.809
302.808
302.806
302.805
302.803
302.801
302.799
302.796
302.793
302.79
302.786
302.781
302.775
302.769
302.762
302.753
302.743
302.731
302.716
302.698
302.677
302.653
302.626
302.592
302.552
302.504
302.439
302.352
302.198
301.958
301.44
301.506
301.571
301.633
301.692
301.747
301.798
301.845
301.889
301.929
301.965
301.998
302.029
302.057
302.084
302.109
302.134
302.157
302.179
302.201
302.222
302.241
302.26
302.279
302.296
302.313
302.33
302.346
302.362
302.377
302.392
302.406
302.42
302.433
302.445
302.458
302.47
302.481
302.493
302.504
302.514
302.524
302.534
302.543
302.552
302.561
302.569
302.577
302.585
302.593
302.6
302.607
302.613
302.62
302.626
302.632
302.637
302.643
302.648
302.653
302.658
302.662
302.667
302.671
302.675
302.678
302.682
302.686
302.689
302.692
302.695
302.698
302.701
302.703
302.706
302.708
302.71
302.712
302.714
302.716
302.718
302.719
302.721
302.722
302.724
302.725
302.726
302.727
302.728
302.729
302.73
302.731
302.732
302.733
302.733
302.734
302.735
302.735
302.736
302.736
302.737
302.737
302.738
302.738
302.738
302.739
302.739
302.739
302.739
302.739
302.739
302.74
302.74
302.74
302.74
302.74
302.74
302.739
302.739
302.739
302.739
302.739
302.738