/*--------------------------------*- C++ -*----------------------------------*\
| =========                 |                                                 |
| \\      /  F ield         | OpenFOAM: The Open Source CFD Toolbox           |
|  \\    /   O peration     | Version:  4.1                                   |
|   \\  /    A nd           | Web:      www.OpenFOAM.org                      |
|    \\/     M anipulation  |                                                 |
\*---------------------------------------------------------------------------*/
FoamFile
{
    version     2.0;
    format      ascii;
    class       volVectorField;
    location    "0.4";
    object      U;
}
// * * * * * * * * * * * * * * * * * * * * * * * * * * * * * * * * * * * * * //

dimensions      [0 1 -1 0 0 0 0];

internalField   nonuniform List<vector> 
12013
(
(0.0999932 3.93155e-06 0)
(0.0999225 1.11683e-05 0)
(0.0997639 1.83886e-05 0)
(0.0995477 2.2247e-05 0)
(0.099319 2.22929e-05 0)
(0.0991101 2.01902e-05 0)
(0.0989302 1.7833e-05 0)
(0.0987733 1.62737e-05 0)
(0.098629 1.56967e-05 0)
(0.0984887 1.5843e-05 0)
(0.0983476 1.63773e-05 0)
(0.0982038 1.70547e-05 0)
(0.098057 1.77471e-05 0)
(0.0979075 1.84058e-05 0)
(0.0977559 1.90257e-05 0)
(0.0976026 1.96163e-05 0)
(0.0974479 2.01895e-05 0)
(0.0972921 2.07551e-05 0)
(0.0971353 2.13191e-05 0)
(0.0969776 2.1884e-05 0)
(0.0968191 2.24501e-05 0)
(0.09666 2.30154e-05 0)
(0.0965003 2.35772e-05 0)
(0.0963402 2.41307e-05 0)
(0.0961799 2.46707e-05 0)
(0.0960196 2.51914e-05 0)
(0.0958595 2.56879e-05 0)
(0.0956999 2.61551e-05 0)
(0.095541 2.65892e-05 0)
(0.0953831 2.69864e-05 0)
(0.0952266 2.73455e-05 0)
(0.0950716 2.76654e-05 0)
(0.0949185 2.79471e-05 0)
(0.0947674 2.81937e-05 0)
(0.0946186 2.84081e-05 0)
(0.0944722 2.85961e-05 0)
(0.0943284 2.87642e-05 0)
(0.0941872 2.89201e-05 0)
(0.0940486 2.90728e-05 0)
(0.0939127 2.9232e-05 0)
(0.0937794 2.94089e-05 0)
(0.0936485 2.9615e-05 0)
(0.0935199 2.98625e-05 0)
(0.0933933 3.01655e-05 0)
(0.0932685 3.05383e-05 0)
(0.0931452 3.09965e-05 0)
(0.093023 3.1557e-05 0)
(0.0929014 3.22384e-05 0)
(0.09278 3.30614e-05 0)
(0.0926583 3.40493e-05 0)
(0.0925356 3.52288e-05 0)
(0.0924113 3.66313e-05 0)
(0.0922846 3.82921e-05 0)
(0.0921546 4.02556e-05 0)
(0.0920205 4.25738e-05 0)
(0.091881 4.53099e-05 0)
(0.0917349 4.85419e-05 0)
(0.0915807 5.23649e-05 0)
(0.0914168 5.68975e-05 0)
(0.0912409 6.22875e-05 0)
(0.0910507 6.87203e-05 0)
(0.0908434 7.64297e-05 0)
(0.0906152 8.57149e-05 0)
(0.090362 9.69605e-05 0)
(0.0900785 0.000110667 0)
(0.0897582 0.000127493 0)
(0.0893927 0.000148318 0)
(0.0889717 0.000174331 0)
(0.0884817 0.000207172 0)
(0.0879052 0.000249137 0)
(0.0872191 0.000303503 0)
(0.0863919 0.000375044 0)
(0.0853806 0.000470864 0)
(0.0841251 0.000601757 0)
(0.0825392 0.000784502 0)
(0.0804979 0.00104574 0)
(0.0778159 0.00142872 0)
(0.0741997 0.00200726 0)
(0.069193 0.00292955 0)
(0.0622578 0.0046084 0)
(0.0544393 0.00889907 0)
(0.0999944 1.19305e-05 0)
(0.0999254 3.41053e-05 0)
(0.0997693 5.62577e-05 0)
(0.0995552 6.81438e-05 0)
(0.099328 6.83552e-05 0)
(0.0991195 6.19645e-05 0)
(0.0989395 5.47687e-05 0)
(0.0987822 4.99962e-05 0)
(0.0986374 4.82219e-05 0)
(0.0984968 4.8659e-05 0)
(0.0983556 5.02839e-05 0)
(0.0982117 5.23505e-05 0)
(0.098065 5.44642e-05 0)
(0.0979157 5.64781e-05 0)
(0.0977644 5.83744e-05 0)
(0.0976114 6.01821e-05 0)
(0.0974571 6.19382e-05 0)
(0.0973017 6.36712e-05 0)
(0.0971452 6.53994e-05 0)
(0.0969879 6.71311e-05 0)
(0.0968298 6.88663e-05 0)
(0.0966711 7.06004e-05 0)
(0.0965118 7.2323e-05 0)
(0.0963521 7.40204e-05 0)
(0.0961922 7.56768e-05 0)
(0.0960323 7.72753e-05 0)
(0.0958726 7.88e-05 0)
(0.0957134 8.02359e-05 0)
(0.0955549 8.157e-05 0)
(0.0953974 8.2793e-05 0)
(0.0952412 8.38989e-05 0)
(0.0950865 8.48861e-05 0)
(0.0949336 8.57574e-05 0)
(0.0947827 8.65207e-05 0)
(0.094634 8.71871e-05 0)
(0.0944877 8.77733e-05 0)
(0.0943439 8.82994e-05 0)
(0.0942026 8.8789e-05 0)
(0.094064 8.92696e-05 0)
(0.0939279 8.97712e-05 0)
(0.0937943 9.03273e-05 0)
(0.0936631 9.09735e-05 0)
(0.0935341 9.17482e-05 0)
(0.0934071 9.26929e-05 0)
(0.0932818 9.38526e-05 0)
(0.0931579 9.52745e-05 0)
(0.0930351 9.70107e-05 0)
(0.0929128 9.91177e-05 0)
(0.0927907 0.000101659 0)
(0.0926682 0.000104706 0)
(0.0925447 0.00010834 0)
(0.0924195 0.000112656 0)
(0.0922919 0.000117764 0)
(0.0921611 0.000123796 0)
(0.0920261 0.000130913 0)
(0.0918858 0.000139307 0)
(0.0917389 0.000149213 0)
(0.0915841 0.000160922 0)
(0.0914196 0.000174792 0)
(0.0912434 0.000191271 0)
(0.0910532 0.000210918 0)
(0.0908462 0.000234439 0)
(0.090619 0.000262734 0)
(0.0903675 0.000296956 0)
(0.0900868 0.000338601 0)
(0.0897708 0.000389632 0)
(0.0894117 0.000452652 0)
(0.0890001 0.000531171 0)
(0.0885238 0.000629986 0)
(0.0879673 0.000755757 0)
(0.0873105 0.000917899 0)
(0.0865271 0.00112994 0)
(0.0855819 0.00141167 0)
(0.0844283 0.0017925 0)
(0.0830036 0.00231675 0)
(0.0812244 0.00305176 0)
(0.0789819 0.00409949 0)
(0.076133 0.00561197 0)
(0.0725191 0.00781094 0)
(0.0681935 0.0109507 0)
(0.0644335 0.0148856 0)
(0.0999954 2.00016e-05 0)
(0.0999299 5.7929e-05 0)
(0.0997795 9.59371e-05 0)
(0.099571 0.00011657 0)
(0.0993474 0.000117271 0)
(0.0991403 0.00010659 0)
(0.09896 9.4406e-05 0)
(0.0988016 8.62619e-05 0)
(0.0986557 8.31883e-05 0)
(0.0985143 8.38781e-05 0)
(0.0983726 8.66036e-05 0)
(0.0982288 9.00983e-05 0)
(0.0980823 9.36871e-05 0)
(0.0979335 9.71173e-05 0)
(0.0977827 0.000100354 0)
(0.0976304 0.000103446 0)
(0.0974769 0.000106452 0)
(0.0973222 0.000109422 0)
(0.0971666 0.000112385 0)
(0.0970102 0.000115355 0)
(0.096853 0.000118333 0)
(0.0966951 0.00012131 0)
(0.0965368 0.000124268 0)
(0.0963781 0.000127184 0)
(0.0962191 0.000130031 0)
(0.0960601 0.000132782 0)
(0.0959014 0.000135408 0)
(0.095743 0.000137884 0)
(0.0955854 0.000140189 0)
(0.0954287 0.000142306 0)
(0.0952733 0.000144226 0)
(0.0951193 0.000145946 0)
(0.094967 0.00014747 0)
(0.0948166 0.000148813 0)
(0.0946684 0.000149993 0)
(0.0945224 0.000151039 0)
(0.0943788 0.000151985 0)
(0.0942376 0.000152872 0)
(0.0940989 0.000153748 0)
(0.0939627 0.000154662 0)
(0.0938288 0.000155673 0)
(0.0936972 0.00015684 0)
(0.0935676 0.000158232 0)
(0.09344 0.000159917 0)
(0.0933139 0.000161973 0)
(0.0931891 0.000164481 0)
(0.0930652 0.000167529 0)
(0.0929418 0.000171215 0)
(0.0928185 0.000175647 0)
(0.0926947 0.000180946 0)
(0.0925698 0.00018725 0)
(0.0924432 0.00019472 0)
(0.0923141 0.000203544 0)
(0.0921818 0.000213947 0)
(0.0920453 0.000226197 0)
(0.0919036 0.000240621 0)
(0.0917555 0.000257614 0)
(0.0915996 0.000277665 0)
(0.0914342 0.000301373 0)
(0.0912576 0.000329486 0)
(0.0910675 0.000362934 0)
(0.0908613 0.000402887 0)
(0.0906359 0.000450827 0)
(0.0903877 0.000508644 0)
(0.0901121 0.000578773 0)
(0.0898037 0.000664381 0)
(0.089456 0.000769633 0)
(0.0890609 0.000900072 0)
(0.0886084 0.00106317 0)
(0.0880863 0.00126912 0)
(0.0874793 0.00153203 0)
(0.0867687 0.00187164 0)
(0.0859315 0.00231583 0)
(0.0849401 0.00290427 0)
(0.0837629 0.00369328 0)
(0.0823679 0.00476177 0)
(0.0807302 0.00621575 0)
(0.0788491 0.0081853 0)
(0.0767901 0.0107991 0)
(0.0748142 0.0140635 0)
(0.0736125 0.0173816 0)
(0.0999963 2.78919e-05 0)
(0.0999361 8.2078e-05 0)
(0.0997948 0.000136705 0)
(0.0995954 0.000166959 0)
(0.099378 0.000168809 0)
(0.0991733 0.000154166 0)
(0.0989926 0.000137046 0)
(0.0988325 0.000125437 0)
(0.0986848 0.000120936 0)
(0.0985421 0.000121776 0)
(0.0983998 0.000125545 0)
(0.0982559 0.000130451 0)
(0.0981099 0.000135529 0)
(0.0979618 0.00014041 0)
(0.097812 0.000145034 0)
(0.0976608 0.000149464 0)
(0.0975084 0.00015378 0)
(0.0973551 0.00015805 0)
(0.0972008 0.000162313 0)
(0.0970458 0.000166589 0)
(0.09689 0.000170878 0)
(0.0967337 0.000175167 0)
(0.0965769 0.000179433 0)
(0.0964197 0.000183641 0)
(0.0962623 0.000187753 0)
(0.0961049 0.000191731 0)
(0.0959476 0.000195535 0)
(0.0957908 0.000199128 0)
(0.0956347 0.000202482 0)
(0.0954794 0.000205571 0)
(0.0953253 0.000208385 0)
(0.0951725 0.000210917 0)
(0.0950213 0.000213177 0)
(0.094872 0.000215182 0)
(0.0947246 0.000216962 0)
(0.0945793 0.000218556 0)
(0.0944363 0.000220014 0)
(0.0942955 0.000221394 0)
(0.094157 0.000222764 0)
(0.0940208 0.000224197 0)
(0.0938867 0.000225774 0)
(0.0937548 0.000227583 0)
(0.0936247 0.000229719 0)
(0.0934964 0.000232284 0)
(0.0933694 0.000235386 0)
(0.0932436 0.000239142 0)
(0.0931185 0.000243679 0)
(0.0929939 0.000249135 0)
(0.0928691 0.000255665 0)
(0.0927438 0.000263441 0)
(0.0926173 0.000272661 0)
(0.092489 0.000283552 0)
(0.0923583 0.000296381 0)
(0.0922244 0.000311465 0)
(0.0920864 0.000329183 0)
(0.0919432 0.000349991 0)
(0.0917939 0.000374447 0)
(0.0916371 0.000403228 0)
(0.0914714 0.000437171 0)
(0.0912949 0.000477305 0)
(0.0911059 0.000524912 0)
(0.0909019 0.00058159 0)
(0.0906803 0.000649349 0)
(0.0904379 0.00073073 0)
(0.090171 0.000828973 0)
(0.0898752 0.000948245 0)
(0.0895453 0.00109394 0)
(0.0891752 0.00127314 0)
(0.0887579 0.00149515 0)
(0.0882852 0.00177241 0)
(0.0877478 0.00212159 0)
(0.0871359 0.00256513 0)
(0.0864394 0.00313335 0)
(0.0856502 0.0038668 0)
(0.0847651 0.00481877 0)
(0.0837925 0.00605614 0)
(0.0827632 0.00765498 0)
(0.0817471 0.00968256 0)
(0.0808762 0.0121504 0)
(0.0803704 0.0149008 0)
(0.0804999 0.0173601 0)
(0.0999972 3.5366e-05 0)
(0.0999439 0.000105857 0)
(0.0998148 0.000177652 0)
(0.0996279 0.000218555 0)
(0.0994193 0.000222613 0)
(0.0992183 0.000204738 0)
(0.0990373 0.000182991 0)
(0.0988751 0.000167916 0)
(0.0987251 0.000161836 0)
(0.0985807 0.000162651 0)
(0.0984376 0.000167324 0)
(0.0982937 0.000173557 0)
(0.0981483 0.000180089 0)
(0.0980013 0.000186419 0)
(0.0978528 0.000192454 0)
(0.0977032 0.000198259 0)
(0.0975525 0.000203932 0)
(0.0974009 0.000209553 0)
(0.0972486 0.000215173 0)
(0.0970955 0.000220813 0)
(0.0969418 0.000226474 0)
(0.0967876 0.00023214 0)
(0.0966329 0.000237778 0)
(0.0964779 0.000243345 0)
(0.0963228 0.000248793 0)
(0.0961676 0.000254071 0)
(0.0960126 0.000259127 0)
(0.0958579 0.000263917 0)
(0.0957039 0.0002684 0)
(0.0955507 0.000272549 0)
(0.0953985 0.000276345 0)
(0.0952476 0.000279786 0)
(0.0950982 0.000282879 0)
(0.0949504 0.000285651 0)
(0.0948044 0.000288139 0)
(0.0946603 0.000290396 0)
(0.0945182 0.000292486 0)
(0.0943782 0.000294485 0)
(0.0942403 0.000296482 0)
(0.0941044 0.000298573 0)
(0.0939705 0.000300865 0)
(0.0938384 0.000303471 0)
(0.093708 0.000306517 0)
(0.0935791 0.000310135 0)
(0.0934514 0.000314467 0)
(0.0933247 0.000319667 0)
(0.0931986 0.0003259 0)
(0.0930727 0.000333346 0)
(0.0929466 0.000342206 0)
(0.0928198 0.000352705 0)
(0.0926919 0.000365098 0)
(0.0925621 0.000379679 0)
(0.09243 0.000396793 0)
(0.0922947 0.000416847 0)
(0.0921555 0.000440325 0)
(0.0920114 0.00046781 0)
(0.0918615 0.000500007 0)
(0.0917047 0.000537773 0)
(0.0915396 0.000582156 0)
(0.0913647 0.000634441 0)
(0.0911785 0.000696211 0)
(0.090979 0.000769427 0)
(0.090764 0.000856528 0)
(0.090531 0.000960562 0)
(0.0902774 0.00108536 0)
(0.0899998 0.00123578 0)
(0.0896948 0.00141799 0)
(0.0893587 0.00163987 0)
(0.0889876 0.00191157 0)
(0.0885777 0.00224616 0)
(0.0881258 0.00266051 0)
(0.0876302 0.00317631 0)
(0.0870924 0.00382117 0)
(0.0865192 0.00462943 0)
(0.0859267 0.00564197 0)
(0.0853459 0.00690336 0)
(0.0848302 0.00845294 0)
(0.0844627 0.0103044 0)
(0.0843591 0.0124059 0)
(0.0846522 0.0145736 0)
(0.0854187 0.0164081 0)
(0.0999981 4.2157e-05 0)
(0.0999529 0.000128515 0)
(0.0998385 0.000217773 0)
(0.0996672 0.000270486 0)
(0.0994697 0.000278214 0)
(0.0992738 0.000258269 0)
(0.099093 0.000232501 0)
(0.0989286 0.000214078 0)
(0.098776 0.00020626 0)
(0.0986297 0.000206803 0)
(0.0984857 0.000212157 0)
(0.0983419 0.000219559 0)
(0.0981974 0.000227451 0)
(0.0980517 0.00023519 0)
(0.0979051 0.000242629 0)
(0.0977574 0.000249826 0)
(0.097609 0.000256886 0)
(0.0974598 0.000263898 0)
(0.0973099 0.000270918 0)
(0.0971594 0.00027797 0)
(0.0970083 0.000285055 0)
(0.0968568 0.000292151 0)
(0.0967049 0.000299217 0)
(0.0965528 0.000306204 0)
(0.0964005 0.000313051 0)
(0.0962482 0.000319696 0)
(0.0960961 0.000326079 0)
(0.0959443 0.000332143 0)
(0.0957931 0.000337843 0)
(0.0956426 0.000343143 0)
(0.095493 0.000348022 0)
(0.0953446 0.000352478 0)
(0.0951975 0.000356521 0)
(0.0950518 0.000360183 0)
(0.0949078 0.000363512 0)
(0.0947654 0.000366572 0)
(0.0946248 0.000369442 0)
(0.0944861 0.000372218 0)
(0.0943491 0.000375007 0)
(0.094214 0.000377929 0)
(0.0940805 0.000381116 0)
(0.0939487 0.000384708 0)
(0.0938183 0.000388861 0)
(0.0936891 0.000393737 0)
(0.093561 0.000399513 0)
(0.0934337 0.000406376 0)
(0.0933068 0.000414531 0)
(0.0931799 0.000424201 0)
(0.0930528 0.000435631 0)
(0.092925 0.000449096 0)
(0.0927959 0.000464907 0)
(0.0926652 0.000483423 0)
(0.0925321 0.000505061 0)
(0.0923961 0.00053031 0)
(0.0922565 0.000559752 0)
(0.0921124 0.000594083 0)
(0.0919631 0.000634136 0)
(0.0918075 0.000680924 0)
(0.0916447 0.000735667 0)
(0.0914734 0.000799855 0)
(0.0912924 0.000875304 0)
(0.0911002 0.000964236 0)
(0.0908952 0.00106938 0)
(0.0906759 0.00119409 0)
(0.0904404 0.00134253 0)
(0.0901869 0.00151982 0)
(0.0899139 0.00173236 0)
(0.0896199 0.00198808 0)
(0.089304 0.00229685 0)
(0.0889665 0.00267087 0)
(0.0886094 0.00312519 0)
(0.0882375 0.00367804 0)
(0.08786 0.00435106 0)
(0.0874927 0.00516877 0)
(0.0871607 0.00615687 0)
(0.086902 0.00733791 0)
(0.0867701 0.00872256 0)
(0.0868342 0.0102941 0)
(0.0871731 0.0119845 0)
(0.0878524 0.0136451 0)
(0.0888751 0.01503 0)
(0.099999 4.80145e-05 0)
(0.0999624 0.00014934 0)
(0.0998644 0.000256077 0)
(0.0997107 0.000321828 0)
(0.0995265 0.000335045 0)
(0.0993371 0.00031461 0)
(0.0991573 0.000285732 0)
(0.0989911 0.000264224 0)
(0.098836 0.000254528 0)
(0.0986879 0.000254502 0)
(0.0985432 0.000260242 0)
(0.0983997 0.000268584 0)
(0.0982563 0.000277688 0)
(0.0981124 0.000286751 0)
(0.0979679 0.000295556 0)
(0.0978227 0.000304137 0)
(0.097677 0.000312596 0)
(0.0975306 0.000321021 0)
(0.0973837 0.000329471 0)
(0.0972363 0.000337971 0)
(0.0970885 0.000346519 0)
(0.0969403 0.000355087 0)
(0.0967918 0.000363629 0)
(0.0966431 0.000372085 0)
(0.0964943 0.000380387 0)
(0.0963455 0.000388463 0)
(0.0961969 0.000396241 0)
(0.0960486 0.000403658 0)
(0.0959008 0.000410662 0)
(0.0957537 0.000417211 0)
(0.0956074 0.000423283 0)
(0.0954621 0.000428873 0)
(0.0953179 0.000433998 0)
(0.0951749 0.000438694 0)
(0.0950333 0.000443018 0)
(0.0948932 0.000447046 0)
(0.0947546 0.000450873 0)
(0.0946176 0.00045461 0)
(0.0944821 0.000458386 0)
(0.0943481 0.000462342 0)
(0.0942156 0.000466635 0)
(0.0940844 0.000471431 0)
(0.0939544 0.000476914 0)
(0.0938254 0.000483276 0)
(0.0936972 0.000490727 0)
(0.0935697 0.000499488 0)
(0.0934424 0.0005098 0)
(0.0933151 0.000521926 0)
(0.0931875 0.000536153 0)
(0.0930591 0.000552804 0)
(0.0929296 0.00057224 0)
(0.0927985 0.000594878 0)
(0.0926654 0.000621197 0)
(0.0925296 0.000651761 0)
(0.0923906 0.000687231 0)
(0.0922478 0.000728394 0)
(0.0921005 0.000776187 0)
(0.091948 0.000831734 0)
(0.0917894 0.000896383 0)
(0.091624 0.000971755 0)
(0.0914509 0.0010598 0)
(0.0912692 0.00116289 0)
(0.091078 0.00128385 0)
(0.0908765 0.00142612 0)
(0.090664 0.00159387 0)
(0.0904401 0.0017921 0)
(0.0902049 0.00202686 0)
(0.089959 0.00230541 0)
(0.0897042 0.00263639 0)
(0.0894439 0.00303003 0)
(0.0891836 0.00349816 0)
(0.0889322 0.00405418 0)
(0.0887028 0.00471253 0)
(0.0885144 0.00548763 0)
(0.0883934 0.00639168 0)
(0.0883745 0.00743071 0)
(0.0885008 0.00859826 0)
(0.0888208 0.00986609 0)
(0.0893805 0.0111729 0)
(0.0902065 0.0124147 0)
(0.0912799 0.0134481 0)
(0.0999998 5.27601e-05 0)
(0.0999718 0.000167767 0)
(0.0998904 0.000291714 0)
(0.0997555 0.000371711 0)
(0.099586 0.000392476 0)
(0.0994046 0.000373469 0)
(0.0992272 0.000342681 0)
(0.09906 0.000318521 0)
(0.0989031 0.000306863 0)
(0.0987535 0.000305954 0)
(0.0986084 0.000311733 0)
(0.0984655 0.000320732 0)
(0.0983235 0.000330848 0)
(0.0981817 0.000341111 0)
(0.0980397 0.000351214 0)
(0.0978975 0.000361148 0)
(0.0977548 0.000370995 0)
(0.0976118 0.00038084 0)
(0.0974683 0.000390736 0)
(0.0973245 0.000400706 0)
(0.0971804 0.000410742 0)
(0.097036 0.000420814 0)
(0.0968915 0.000430867 0)
(0.0967467 0.000440835 0)
(0.0966019 0.000450639 0)
(0.0964572 0.000460201 0)
(0.0963127 0.000469441 0)
(0.0961684 0.000478289 0)
(0.0960246 0.000486685 0)
(0.0958813 0.000494586 0)
(0.0957388 0.000501967 0)
(0.0955971 0.000508824 0)
(0.0954563 0.000515177 0)
(0.0953166 0.000521067 0)
(0.095178 0.000526561 0)
(0.0950406 0.000531745 0)
(0.0949045 0.000536728 0)
(0.0947696 0.000541638 0)
(0.094636 0.000546621 0)
(0.0945036 0.00055184 0)
(0.0943725 0.000557472 0)
(0.0942423 0.000563711 0)
(0.0941132 0.000570765 0)
(0.0939849 0.000578856 0)
(0.0938572 0.00058822 0)
(0.0937299 0.000599113 0)
(0.0936028 0.000611808 0)
(0.0934757 0.000626602 0)
(0.0933482 0.000643822 0)
(0.09322 0.000663829 0)
(0.0930909 0.000687029 0)
(0.0929604 0.000713885 0)
(0.0928281 0.000744928 0)
(0.0926937 0.000780775 0)
(0.0925567 0.000822147 0)
(0.0924166 0.000869891 0)
(0.0922731 0.000925012 0)
(0.0921255 0.000988696 0)
(0.0919734 0.00106235 0)
(0.0918165 0.00114764 0)
(0.0916541 0.00124656 0)
(0.0914861 0.00136144 0)
(0.0913122 0.00149506 0)
(0.0911324 0.0016507 0)
(0.0909471 0.00183221 0)
(0.090757 0.0020441 0)
(0.0905635 0.00229161 0)
(0.0903692 0.00258076 0)
(0.0901774 0.00291838 0)
(0.0899936 0.00331205 0)
(0.0898253 0.0037699 0)
(0.0896828 0.00430025 0)
(0.0895801 0.00491089 0)
(0.0895353 0.00560784 0)
(0.0895712 0.00639354 0)
(0.0897148 0.00726402 0)
(0.0899966 0.00820518 0)
(0.0904463 0.00918827 0)
(0.0910876 0.0101658 0)
(0.0919277 0.0110702 0)
(0.0929458 0.0118199 0)
(0.1 5.6325e-05 0)
(0.0999802 0.000183462 0)
(0.0999147 0.000324086 0)
(0.0997984 0.000419418 0)
(0.0996443 0.000449865 0)
(0.0994724 0.000434418 0)
(0.0992988 0.000403151 0)
(0.0991322 0.000376948 0)
(0.0989744 0.000363339 0)
(0.0988241 0.000361263 0)
(0.0986791 0.000366726 0)
(0.0985372 0.000376066 0)
(0.098397 0.000386961 0)
(0.0982576 0.000398268 0)
(0.0981185 0.000409572 0)
(0.0979795 0.000420802 0)
(0.0978403 0.00043201 0)
(0.0977009 0.000443263 0)
(0.0975614 0.000454607 0)
(0.0974216 0.000466055 0)
(0.0972816 0.000477596 0)
(0.0971414 0.000489192 0)
(0.0970011 0.000500782 0)
(0.0968608 0.000512294 0)
(0.0967205 0.000523644 0)
(0.0965802 0.000534743 0)
(0.0964401 0.000545507 0)
(0.0963003 0.000555861 0)
(0.0961609 0.000565741 0)
(0.0960219 0.000575101 0)
(0.0958835 0.000583914 0)
(0.0957458 0.000592179 0)
(0.0956089 0.000599918 0)
(0.0954728 0.000607178 0)
(0.0953376 0.000614032 0)
(0.0952033 0.000620578 0)
(0.0950701 0.000626937 0)
(0.0949378 0.00063325 0)
(0.0948065 0.000639679 0)
(0.0946762 0.000646406 0)
(0.0945468 0.000653628 0)
(0.0944183 0.000661561 0)
(0.0942905 0.000670435 0)
(0.0941633 0.000680495 0)
(0.0940366 0.000692007 0)
(0.0939102 0.00070525 0)
(0.0937839 0.000720526 0)
(0.0936576 0.000738162 0)
(0.093531 0.000758513 0)
(0.0934039 0.000781973 0)
(0.0932761 0.000808979 0)
(0.0931472 0.000840027 0)
(0.093017 0.000875681 0)
(0.0928853 0.000916589 0)
(0.0927517 0.000963502 0)
(0.092616 0.0010173 0)
(0.092478 0.00107899 0)
(0.0923374 0.00114978 0)
(0.0921941 0.00123105 0)
(0.092048 0.00132444 0)
(0.0918992 0.00143182 0)
(0.0917477 0.0015554 0)
(0.0915941 0.00169769 0)
(0.0914391 0.0018616 0)
(0.0912838 0.00205043 0)
(0.09113 0.00226788 0)
(0.0909801 0.00251809 0)
(0.0908375 0.00280552 0)
(0.0907069 0.00313494 0)
(0.0905943 0.00351117 0)
(0.0905078 0.00393883 0)
(0.0904574 0.00442185 0)
(0.0904557 0.00496276 0)
(0.0905177 0.00556177 0)
(0.0906607 0.00621545 0)
(0.0909036 0.00691515 0)
(0.0912653 0.00764516 0)
(0.0917624 0.00838109 0)
(0.0924049 0.00908899 0)
(0.0931917 0.00972659 0)
(0.0941053 0.0102478 0)
(0.100001 5.87603e-05 0)
(0.0999873 0.000196361 0)
(0.0999358 0.000352925 0)
(0.099837 0.000464459 0)
(0.0996984 0.000506624 0)
(0.099537 0.000496919 0)
(0.0993689 0.000466751 0)
(0.0992043 0.000439279 0)
(0.0990471 0.000423862 0)
(0.0988971 0.000420413 0)
(0.0987529 0.000425233 0)
(0.0986125 0.000434603 0)
(0.0984745 0.000446028 0)
(0.0983379 0.000458202 0)
(0.098202 0.000470588 0)
(0.0980665 0.000483041 0)
(0.0979311 0.000495566 0)
(0.0977957 0.000508203 0)
(0.0976603 0.000520981 0)
(0.0975248 0.000533907 0)
(0.0973892 0.000546958 0)
(0.0972536 0.00056009 0)
(0.0971179 0.000573238 0)
(0.0969822 0.000586321 0)
(0.0968466 0.000599252 0)
(0.0967111 0.000611936 0)
(0.0965757 0.000624286 0)
(0.0964407 0.000636223 0)
(0.0963059 0.000647679 0)
(0.0961715 0.000658607 0)
(0.0960375 0.000668982 0)
(0.0959041 0.000678804 0)
(0.0957713 0.000688096 0)
(0.0956391 0.000696911 0)
(0.0955076 0.00070533 0)
(0.0953768 0.000713456 0)
(0.0952467 0.000721421 0)
(0.0951174 0.000729378 0)
(0.0949889 0.000737503 0)
(0.094861 0.000745991 0)
(0.0947338 0.000755057 0)
(0.0946073 0.000764932 0)
(0.0944813 0.000775866 0)
(0.0943559 0.000788125 0)
(0.0942307 0.000801993 0)
(0.0941059 0.00081777 0)
(0.0939812 0.00083578 0)
(0.0938565 0.000856368 0)
(0.0937316 0.00087991 0)
(0.0936065 0.000906818 0)
(0.093481 0.000937548 0)
(0.0933548 0.000972608 0)
(0.093228 0.00101257 0)
(0.0931003 0.0010581 0)
(0.0929717 0.00110993 0)
(0.0928421 0.00116893 0)
(0.0927114 0.00123608 0)
(0.0925798 0.00131252 0)
(0.0924474 0.00139954 0)
(0.0923144 0.00149865 0)
(0.0921813 0.00161152 0)
(0.0920487 0.00174006 0)
(0.0919176 0.00188641 0)
(0.0917893 0.00205292 0)
(0.0916655 0.00224217 0)
(0.0915485 0.00245691 0)
(0.0914414 0.00270001 0)
(0.091348 0.00297436 0)
(0.0912733 0.0032827 0)
(0.0912232 0.00362743 0)
(0.0912051 0.00401027 0)
(0.0912277 0.00443186 0)
(0.091301 0.00489123 0)
(0.0914362 0.00538519 0)
(0.0916453 0.00590758 0)
(0.09194 0.00644854 0)
(0.0923311 0.00699389 0)
(0.0928263 0.00752478 0)
(0.0934283 0.00801807 0)
(0.0941329 0.00844773 0)
(0.0949266 0.00878768 0)
(0.100001 6.02185e-05 0)
(0.0999926 0.000206657 0)
(0.0999529 0.00037828 0)
(0.0998695 0.000506604 0)
(0.0997458 0.000562266 0)
(0.0995956 0.000560376 0)
(0.0994346 0.000532935 0)
(0.0992739 0.000505104 0)
(0.0991187 0.00048817 0)
(0.0989703 0.000483257 0)
(0.0988277 0.000487181 0)
(0.0986894 0.000496304 0)
(0.098554 0.000508021 0)
(0.0984205 0.000520879 0)
(0.098288 0.000534219 0)
(0.0981563 0.000547806 0)
(0.0980249 0.00056159 0)
(0.0978937 0.000575575 0)
(0.0977627 0.000589769 0)
(0.0976317 0.000604162 0)
(0.0975007 0.000618722 0)
(0.0973698 0.000633398 0)
(0.0972389 0.000648118 0)
(0.0971081 0.000662798 0)
(0.0969773 0.000677345 0)
(0.0968467 0.000691663 0)
(0.0967162 0.00070566 0)
(0.096586 0.000719256 0)
(0.096456 0.000732383 0)
(0.0963263 0.000744995 0)
(0.096197 0.000757066 0)
(0.096068 0.000768596 0)
(0.0959395 0.000779615 0)
(0.0958114 0.000790178 0)
(0.0956838 0.000800368 0)
(0.0955567 0.000810296 0)
(0.0954301 0.000820101 0)
(0.095304 0.000829945 0)
(0.0951785 0.000840011 0)
(0.0950535 0.000850506 0)
(0.094929 0.000861657 0)
(0.0948049 0.000873707 0)
(0.0946813 0.000886919 0)
(0.0945581 0.000901573 0)
(0.0944352 0.000917963 0)
(0.0943126 0.000936405 0)
(0.0941902 0.000957231 0)
(0.0940679 0.000980797 0)
(0.0939458 0.00100749 0)
(0.0938236 0.00103771 0)
(0.0937015 0.00107193 0)
(0.0935793 0.00111065 0)
(0.0934571 0.00115442 0)
(0.0933349 0.00120387 0)
(0.0932127 0.00125971 0)
(0.0930908 0.00132275 0)
(0.0929692 0.00139387 0)
(0.0928483 0.00147411 0)
(0.0927286 0.0015646 0)
(0.0926105 0.0016666 0)
(0.0924948 0.00178152 0)
(0.0923826 0.00191089 0)
(0.0922752 0.00205634 0)
(0.0921742 0.0022196 0)
(0.0920817 0.00240244 0)
(0.0920002 0.00260664 0)
(0.0919331 0.00283384 0)
(0.091884 0.00308548 0)
(0.0918576 0.00336264 0)
(0.0918592 0.00366577 0)
(0.0918949 0.00399454 0)
(0.0919715 0.00434747 0)
(0.0920963 0.00472163 0)
(0.092277 0.00511233 0)
(0.0925209 0.00551275 0)
(0.0928347 0.00591375 0)
(0.0932236 0.00630381 0)
(0.0936903 0.00666917 0)
(0.0942339 0.00699451 0)
(0.0948493 0.00726394 0)
(0.0955265 0.0074626 0)
(0.100001 6.09117e-05 0)
(0.0999963 0.000214723 0)
(0.0999659 0.000400462 0)
(0.0998957 0.000545868 0)
(0.0997856 0.000616446 0)
(0.099647 0.00062421 0)
(0.0994943 0.000601072 0)
(0.0993389 0.00057388 0)
(0.0991873 0.000555865 0)
(0.0990416 0.000549538 0)
(0.0989016 0.000552416 0)
(0.098766 0.000561073 0)
(0.0986337 0.000572873 0)
(0.0985036 0.000586245 0)
(0.0983749 0.000600409 0)
(0.0982471 0.000615038 0)
(0.0981199 0.000630016 0)
(0.0979931 0.000645306 0)
(0.0978666 0.000660889 0)
(0.0977402 0.000676735 0)
(0.0976139 0.000692802 0)
(0.0974878 0.000709029 0)
(0.0973618 0.000725337 0)
(0.0972358 0.000741639 0)
(0.09711 0.000757839 0)
(0.0969843 0.000773839 0)
(0.0968588 0.000789548 0)
(0.0967335 0.000804885 0)
(0.0966083 0.000819782 0)
(0.0964834 0.000834193 0)
(0.0963587 0.000848096 0)
(0.0962343 0.000861491 0)
(0.0961101 0.000874409 0)
(0.0959862 0.000886908 0)
(0.0958627 0.000899073 0)
(0.0957394 0.000911021 0)
(0.0956165 0.00092289 0)
(0.095494 0.000934848 0)
(0.0953718 0.000947085 0)
(0.09525 0.000959812 0)
(0.0951285 0.000973262 0)
(0.0950074 0.000987686 0)
(0.0948867 0.00100335 0)
(0.0947664 0.00102054 0)
(0.0946464 0.00103956 0)
(0.0945267 0.00106072 0)
(0.0944074 0.00108436 0)
(0.0942885 0.00111082 0)
(0.09417 0.00114049 0)
(0.0940519 0.00117375 0)
(0.0939343 0.00121106 0)
(0.0938173 0.00125288 0)
(0.093701 0.00129972 0)
(0.0935856 0.00135216 0)
(0.0934714 0.00141083 0)
(0.0933585 0.00147643 0)
(0.0932475 0.00154973 0)
(0.0931388 0.00163158 0)
(0.0930331 0.0017229 0)
(0.0929311 0.00182467 0)
(0.0928339 0.00193796 0)
(0.0927427 0.00206385 0)
(0.0926591 0.00220344 0)
(0.0925847 0.00235782 0)
(0.0925218 0.00252798 0)
(0.092473 0.00271479 0)
(0.0924413 0.00291885 0)
(0.0924301 0.00314043 0)
(0.0924433 0.00337933 0)
(0.0924852 0.00363471 0)
(0.0925604 0.00390494 0)
(0.0926739 0.00418744 0)
(0.0928306 0.00447849 0)
(0.0930351 0.00477312 0)
(0.0932917 0.00506502 0)
(0.0936035 0.00534659 0)
(0.0939724 0.00560904 0)
(0.0943983 0.00584273 0)
(0.094879 0.00603769 0)
(0.0954096 0.00618427 0)
(0.0959827 0.00627398 0)
(0.100001 6.10683e-05 0)
(0.0999986 0.000221029 0)
(0.0999751 0.000419947 0)
(0.0999156 0.000582454 0)
(0.0998178 0.000668968 0)
(0.0996906 0.000687911 0)
(0.099547 0.000670523 0)
(0.0993984 0.000645001 0)
(0.0992518 0.000626462 0)
(0.09911 0.000618908 0)
(0.0989733 0.000620704 0)
(0.0988412 0.000628761 0)
(0.0987123 0.000640483 0)
(0.0985859 0.000654221 0)
(0.0984612 0.000669089 0)
(0.0983375 0.000684668 0)
(0.0982147 0.000700776 0)
(0.0980923 0.000717327 0)
(0.0979704 0.000734271 0)
(0.0978487 0.000751557 0)
(0.0977272 0.000769128 0)
(0.0976059 0.000786913 0)
(0.0974848 0.000804829 0)
(0.0973638 0.000822783 0)
(0.0972429 0.000840677 0)
(0.0971221 0.000858415 0)
(0.0970015 0.000875904 0)
(0.096881 0.000893066 0)
(0.0967607 0.000909834 0)
(0.0966405 0.000926164 0)
(0.0965204 0.000942033 0)
(0.0964005 0.000957445 0)
(0.0962807 0.000972429 0)
(0.0961611 0.000987044 0)
(0.0960417 0.00100138 0)
(0.0959225 0.00101554 0)
(0.0958035 0.00102968 0)
(0.0956847 0.00104395 0)
(0.0955662 0.00105856 0)
(0.0954479 0.0010737 0)
(0.09533 0.00108962 0)
(0.0952123 0.00110656 0)
(0.0950951 0.0011248 0)
(0.0949782 0.0011446 0)
(0.0948618 0.00116626 0)
(0.0947459 0.0011901 0)
(0.0946306 0.00121643 0)
(0.0945159 0.00124558 0)
(0.094402 0.00127791 0)
(0.094289 0.00131378 0)
(0.0941771 0.00135359 0)
(0.0940664 0.00139775 0)
(0.0939573 0.00144671 0)
(0.09385 0.00150097 0)
(0.0937448 0.00156103 0)
(0.0936423 0.00162748 0)
(0.093543 0.0017009 0)
(0.0934476 0.00178194 0)
(0.0933568 0.00187127 0)
(0.0932715 0.00196955 0)
(0.093193 0.00207749 0)
(0.0931226 0.00219571 0)
(0.0930617 0.00232482 0)
(0.0930122 0.00246528 0)
(0.0929762 0.00261743 0)
(0.092956 0.00278136 0)
(0.0929541 0.00295689 0)
(0.0929735 0.00314343 0)
(0.0930173 0.00333996 0)
(0.0930885 0.00354486 0)
(0.0931906 0.0037559 0)
(0.0933267 0.00397009 0)
(0.0934999 0.00418367 0)
(0.0937127 0.00439211 0)
(0.0939671 0.0045901 0)
(0.0942643 0.0047717 0)
(0.0946042 0.00493051 0)
(0.0949855 0.00505997 0)
(0.0954058 0.00515369 0)
(0.0958608 0.00520585 0)
(0.0963449 0.00521159 0)
(0.100001 6.08965e-05 0)
(0.0999999 0.000226053 0)
(0.0999812 0.000437279 0)
(0.0999303 0.000616689 0)
(0.0998433 0.000719778 0)
(0.0997269 0.000751079 0)
(0.0995929 0.000740702 0)
(0.099452 0.000717859 0)
(0.0993114 0.000699436 0)
(0.0991745 0.000690963 0)
(0.0990421 0.000691757 0)
(0.0989139 0.000699165 0)
(0.098789 0.000710707 0)
(0.0986666 0.000724698 0)
(0.098546 0.00074017 0)
(0.0984267 0.000756619 0)
(0.0983083 0.000773796 0)
(0.0981905 0.000791567 0)
(0.0980732 0.000809847 0)
(0.0979563 0.000828562 0)
(0.0978396 0.000847639 0)
(0.0977231 0.000866996 0)
(0.0976068 0.000886543 0)
(0.0974907 0.000906184 0)
(0.0973747 0.000925821 0)
(0.0972588 0.000945356 0)
(0.097143 0.000964701 0)
(0.0970273 0.000983776 0)
(0.0969117 0.00100252 0)
(0.0967962 0.00102088 0)
(0.0966807 0.00103885 0)
(0.0965653 0.00105642 0)
(0.09645 0.00107362 0)
(0.0963347 0.00109052 0)
(0.0962196 0.00110718 0)
(0.0961045 0.00112374 0)
(0.0959896 0.00114031 0)
(0.0958748 0.00115706 0)
(0.0957603 0.00117418 0)
(0.095646 0.00119188 0)
(0.0955319 0.00121037 0)
(0.0954183 0.00122991 0)
(0.095305 0.00125074 0)
(0.0951923 0.00127314 0)
(0.0950802 0.00129737 0)
(0.0949688 0.00132373 0)
(0.0948583 0.0013525 0)
(0.0947488 0.00138399 0)
(0.0946405 0.00141851 0)
(0.0945336 0.00145637 0)
(0.0944284 0.00149791 0)
(0.0943252 0.00154347 0)
(0.0942243 0.00159341 0)
(0.0941261 0.0016481 0)
(0.0940311 0.00170793 0)
(0.0939399 0.00177331 0)
(0.0938531 0.00184465 0)
(0.0937714 0.00192236 0)
(0.0936959 0.00200683 0)
(0.0936273 0.00209845 0)
(0.093567 0.00219751 0)
(0.0935161 0.00230427 0)
(0.0934763 0.00241886 0)
(0.0934491 0.00254124 0)
(0.0934363 0.00267122 0)
(0.0934399 0.00280833 0)
(0.093462 0.00295182 0)
(0.0935049 0.00310061 0)
(0.0935706 0.00325319 0)
(0.0936616 0.00340763 0)
(0.0937798 0.00356151 0)
(0.0939273 0.00371195 0)
(0.0941057 0.00385554 0)
(0.0943161 0.00398846 0)
(0.0945591 0.00410651 0)
(0.0948348 0.00420527 0)
(0.0951423 0.00428021 0)
(0.0954799 0.00432697 0)
(0.0958452 0.00434151 0)
(0.0962348 0.00432035 0)
(0.0966445 0.00426076 0)
(0.100001 6.05655e-05 0)
(0.1 0.000230233 0)
(0.099985 0.000452998 0)
(0.0999408 0.000648959 0)
(0.099863 0.00076893 0)
(0.0997568 0.000813432 0)
(0.0996324 0.000811108 0)
(0.0994998 0.000791883 0)
(0.0993661 0.000774255 0)
(0.0992349 0.000765265 0)
(0.0991074 0.000765236 0)