/*--------------------------------*- C++ -*----------------------------------*\
| =========                 |                                                 |
| \\      /  F ield         | OpenFOAM: The Open Source CFD Toolbox           |
|  \\    /   O peration     | Version:  4.1                                   |
|   \\  /    A nd           | Web:      www.OpenFOAM.org                      |
|    \\/     M anipulation  |                                                 |
\*---------------------------------------------------------------------------*/
FoamFile
{
    version     2.0;
    format      ascii;
    class       surfaceScalarField;
    location    "0.6";
    object      phi;
}
// * * * * * * * * * * * * * * * * * * * * * * * * * * * * * * * * * * * * * //

dimensions      [1 0 -1 0 0 0 0];

internalField   nonuniform List<scalar> 
23692
(
9.30741e-05
5.42352e-09
9.30468e-05
2.73334e-08
9.29831e-05
6.37755e-08
9.28788e-05
1.0432e-07
9.27421e-05
1.3685e-07
9.25878e-05
1.54387e-07
9.24307e-05
1.57234e-07
9.22804e-05
1.50467e-07
9.21406e-05
1.40072e-07
9.20105e-05
1.30363e-07
9.18874e-05
1.2332e-07
9.17686e-05
1.19151e-07
9.16519e-05
1.17189e-07
9.15358e-05
1.16567e-07
9.14198e-05
1.16575e-07
9.13037e-05
1.16754e-07
9.11876e-05
1.16866e-07
9.10717e-05
1.16802e-07
9.09561e-05
1.16549e-07
9.08411e-05
1.16111e-07
9.07268e-05
1.15508e-07
9.06135e-05
1.14757e-07
9.05011e-05
1.13866e-07
9.039e-05
1.12836e-07
9.02802e-05
1.11666e-07
9.01718e-05
1.10353e-07
9.00652e-05
1.08887e-07
8.99603e-05
1.07263e-07
8.98574e-05
1.05476e-07
8.97567e-05
1.03526e-07
8.96582e-05
1.01417e-07
8.95623e-05
9.9155e-08
8.94689e-05
9.6756e-08
8.93783e-05
9.42384e-08
8.92905e-05
9.16265e-08
8.92056e-05
8.89515e-08
8.91237e-05
8.62455e-08
8.90446e-05
8.35488e-08
8.89684e-05
8.09048e-08
8.88949e-05
7.83577e-08
8.88241e-05
7.59574e-08
8.87557e-05
7.37543e-08
8.86894e-05
7.18031e-08
8.86249e-05
7.01609e-08
8.85619e-05
6.8884e-08
8.85e-05
6.80334e-08
8.84386e-05
6.76737e-08
8.83771e-05
6.78705e-08
8.8315e-05
6.86974e-08
8.82515e-05
7.02317e-08
8.81859e-05
7.25595e-08
8.81171e-05
7.57767e-08
8.80443e-05
7.99893e-08
8.79663e-05
8.53228e-08
8.78817e-05
9.19199e-08
8.77893e-05
9.99493e-08
8.76873e-05
1.09611e-07
8.75738e-05
1.21144e-07
8.74467e-05
1.34838e-07
8.73035e-05
1.51047e-07
8.71412e-05
1.70203e-07
8.69563e-05
1.92847e-07
8.67446e-05
2.19653e-07
8.65012e-05
2.51476e-07
8.62198e-05
2.8941e-07
8.5893e-05
3.34873e-07
8.55114e-05
3.89723e-07
8.5063e-05
4.56441e-07
8.45327e-05
5.3838e-07
8.39007e-05
6.40157e-07
8.31405e-05
7.68246e-07
8.22167e-05
9.31893e-07
8.10802e-05
1.14457e-06
7.96619e-05
1.4263e-06
7.78625e-05
1.80737e-06
7.5536e-05
2.33444e-06
7.24639e-05
3.07993e-06
6.83139e-05
4.1579e-06
6.25608e-05
5.76091e-06
5.43182e-05
8.25035e-06
1.25869e-05
4.17389e-05
9.95941e-05
1.06883e-08
9.95656e-05
5.58138e-08
9.94985e-05
1.30965e-07
9.93881e-05
2.14779e-07
9.92428e-05
2.82199e-07
9.90786e-05
3.1875e-07
9.8911e-05
3.24948e-07
9.87505e-05
3.11217e-07
9.86009e-05
2.89898e-07
9.84616e-05
2.69907e-07
9.83299e-05
2.55361e-07
9.82027e-05
2.46719e-07
9.80777e-05
2.42617e-07
9.79536e-05
2.4128e-07
9.78295e-05
2.4125e-07
9.77054e-05
2.41587e-07
9.75813e-05
2.41786e-07
9.74574e-05
2.41643e-07
9.73338e-05
2.41106e-07
9.72109e-05
2.40197e-07
9.70888e-05
2.38953e-07
9.69677e-05
2.37403e-07
9.68476e-05
2.3557e-07
9.67288e-05
2.33453e-07
9.66114e-05
2.31053e-07
9.64955e-05
2.28355e-07
9.63814e-05
2.25346e-07
9.62692e-05
2.22015e-07
9.61591e-05
2.18351e-07
9.60513e-05
2.14352e-07
9.59459e-05
2.10028e-07
9.58431e-05
2.05397e-07
9.5743e-05
2.00484e-07
9.56458e-05
1.95328e-07
9.55515e-05
1.89982e-07
9.54603e-05
1.84507e-07
9.53721e-05
1.78974e-07
9.5287e-05
1.73463e-07
9.52049e-05
1.68061e-07
9.51256e-05
1.62863e-07
9.50491e-05
1.57972e-07
9.49751e-05
1.53489e-07
9.49032e-05
1.49528e-07
9.48333e-05
1.46205e-07
9.47649e-05
1.43638e-07
9.46974e-05
1.41951e-07
9.46305e-05
1.41277e-07
9.45635e-05
1.41752e-07
9.44958e-05
1.43527e-07
9.44264e-05
1.4676e-07
9.43548e-05
1.51626e-07
9.42797e-05
1.58321e-07
9.42003e-05
1.67066e-07
9.41153e-05
1.78112e-07
9.40234e-05
1.91752e-07
9.3923e-05
2.08329e-07
9.38125e-05
2.28249e-07
9.36899e-05
2.51996e-07
9.35529e-05
2.80155e-07
9.33988e-05
3.13438e-07
9.32248e-05
3.52718e-07
9.3027e-05
3.99073e-07
9.28014e-05
4.53851e-07
9.25427e-05
5.18748e-07
9.22448e-05
5.95923e-07
9.19001e-05
6.88156e-07
9.14995e-05
7.99067e-07
9.10311e-05
9.33433e-07
9.04805e-05
1.09765e-06
8.9829e-05
1.30038e-06
8.90523e-05
1.55359e-06
8.81188e-05
1.87399e-06
8.69867e-05
2.28524e-06
8.56004e-05
2.82125e-06
8.38854e-05
3.5309e-06
8.17439e-05
4.48439e-06
7.90522e-05
5.78009e-06
7.56699e-05
7.54864e-06
7.14887e-05
9.95037e-06
6.66406e-05
1.31068e-05
1.66063e-05
6.26293e-05
0.000106571
1.56288e-08
0.000106542
8.48581e-08
0.000106472
2.00554e-07
0.000106357
3.30114e-07
0.000106204
4.34882e-07
0.000106031
4.92304e-07
0.000105853
5.0289e-07
0.000105682
4.82494e-07
0.000105522
4.50064e-07
0.000105373
4.19395e-07
0.000105232
3.96917e-07
0.000105096
3.83437e-07
0.000104962
3.76923e-07
0.000104829
3.74684e-07
0.000104696
3.74493e-07
0.000104564
3.74897e-07
0.000104431
3.75123e-07
0.000104299
3.74844e-07
0.000104167
3.73979e-07
0.000104036
3.72552e-07
0.000103906
3.70618e-07
0.000103777
3.68226e-07
0.000103649
3.65399e-07
0.000103522
3.62146e-07
0.000103397
3.58458e-07
0.000103273
3.54322e-07
0.000103151
3.49714e-07
0.000103031
3.44612e-07
0.000102914
3.39004e-07
0.000102798
3.32892e-07
0.000102685
3.26285e-07
0.000102575
3.19211e-07
0.000102468
3.11713e-07
0.000102364
3.03851e-07
0.000102262
2.95703e-07
0.000102164
2.87365e-07
0.000102069
2.78948e-07
0.000101977
2.70572e-07
0.000101888
2.62373e-07
0.000101802
2.54497e-07
0.000101719
2.47099e-07
0.000101638
2.40342e-07
0.000101559
2.34395e-07
0.000101483
2.29437e-07
0.000101407
2.25652e-07
0.000101333
2.2323e-07
0.000101259
2.22372e-07
0.000101185
2.23292e-07
0.00010111
2.26215e-07
0.000101033
2.31387e-07
0.000100953
2.39074e-07
0.00010087
2.49576e-07
0.000100782
2.63227e-07
0.000100688
2.80408e-07
0.000100587
3.01565e-07
0.000100477
3.27214e-07
0.000100356
3.57966e-07
0.000100222
3.94548e-07
0.000100073
4.37835e-07
9.99065e-05
4.88885e-07
9.97193e-05
5.48991e-07
9.95077e-05
6.19742e-07
9.92676e-05
7.03108e-07
9.89939e-05
8.01556e-07
9.86809e-05
9.18194e-07
9.83213e-05
1.05698e-06
9.79066e-05
1.22302e-06
9.74264e-05
1.42292e-06
9.68679e-05
1.66541e-06
9.62155e-05
1.96203e-06
9.54501e-05
2.32829e-06
9.45481e-05
2.78516e-06
9.34815e-05
3.36109e-06
9.22172e-05
4.09468e-06
9.07196e-05
5.03763e-06
8.89561e-05
6.25704e-06
8.69116e-05
7.83359e-06
8.46209e-05
9.84829e-06
8.22389e-05
1.23413e-05
8.01711e-05
1.51835e-05
1.77196e-05
7.90666e-05
0.000114037
2.00363e-08
0.000114008
1.13687e-07
0.000113937
2.71163e-07
0.000113819
4.4857e-07
0.000113661
5.93196e-07
0.000113479
6.73821e-07
0.000113292
6.90502e-07
0.00011311
6.64381e-07
0.000112939
6.21125e-07
0.000112779
5.79614e-07
0.000112628
5.48832e-07
0.000112482
5.3009e-07
0.000112338
5.20784e-07
0.000112196
5.17334e-07
0.000112055
5.16744e-07
0.000111913
5.17046e-07
0.000111772
5.17169e-07
0.000111632
5.16657e-07
0.000111491
5.15385e-07
0.000111352
5.13374e-07
0.000111213
5.10694e-07
0.000111076
5.07402e-07
0.00011094
5.03534e-07
0.000110805
4.99094e-07
0.000110671
4.94074e-07
0.00011054
4.8845e-07
0.00011041
4.82195e-07
0.000110282
4.75282e-07
0.000110157
4.67695e-07
0.000110033
4.5943e-07
0.000109913
4.50509e-07
0.000109795
4.40965e-07
0.00010968
4.30859e-07
0.000109568
4.20276e-07
0.000109459
4.0932e-07
0.000109353
3.98122e-07
0.000109251
3.86831e-07
0.000109151
3.75616e-07
0.000109055
3.64659e-07
0.000108961
3.5416e-07
0.00010887
3.44328e-07
0.000108781
3.35386e-07
0.000108695
3.27567e-07
0.00010861
3.2111e-07
0.000108527
3.16266e-07
0.000108444
3.13294e-07
0.000108362
3.12468e-07
0.000108279
3.14076e-07
0.000108195
3.18422e-07
0.000108109
3.2584e-07
0.000108019
3.36688e-07
0.000107926
3.51367e-07
0.000107828
3.70327e-07
0.000107723
3.94077e-07
0.000107611
4.23207e-07
0.000107489
4.58402e-07
0.000107355
5.00469e-07
0.000107209
5.50362e-07
0.000107047
6.09222e-07
0.000106867
6.78424e-07
0.000106666
7.59631e-07
0.000106441
8.54877e-07
0.000106187
9.66658e-07
0.0001059
1.09806e-06
0.000105575
1.25294e-06
0.000105206
1.43612e-06
0.000104785
1.65371e-06
0.000104305
1.91348e-06
0.000103755
2.22542e-06
0.000103124
2.60237e-06
0.000102401
3.06095e-06
0.000101574
3.62265e-06
0.00010063
4.31509e-06
9.9561e-05
5.1731e-06
9.83692e-05
6.23915e-06
9.70748e-05
7.56119e-06
9.57334e-05
9.18464e-06
9.44596e-05
1.11317e-05
9.34536e-05
1.3357e-05
9.29884e-05
1.56581e-05
1.75334e-05
9.31839e-05
0.000122025
2.36549e-08
0.000121998
1.41382e-07
0.000121928
3.411e-07
0.000121809
5.67942e-07
0.000121647
7.54942e-07
0.000121459
8.6161e-07
0.000121263
8.86888e-07
0.000121071
8.5677e-07
0.000120889
8.03542e-07
0.000120717
7.51346e-07
0.000120555
7.11974e-07
0.000120398
6.8749e-07
0.000120244
6.74876e-07
0.000120092
6.69765e-07
0.000119941
6.68416e-07
0.000119791
6.68335e-07
0.000119641
6.68151e-07
0.000119492
6.67253e-07
0.000119343
6.65452e-07
0.000119195
6.62766e-07
0.000119048
6.59261e-07
0.000118902
6.55004e-07
0.000118758
6.50032e-07
0.000118615
6.44354e-07
0.000118473
6.37956e-07
0.000118333
6.30807e-07
0.000118196
6.22876e-07
0.00011806
6.14126e-07
0.000117926
6.04541e-07
0.000117795
5.94121e-07
0.000117667
5.82888e-07
0.000117541
5.70892e-07
0.000117418
5.58208e-07
0.000117298
5.44944e-07
0.000117181
5.31237e-07
0.000117068
5.1725e-07
0.000116957
5.03175e-07
0.000116849
4.89223e-07
0.000116744
4.75632e-07
0.000116642
4.62651e-07
0.000116543
4.50546e-07
0.000116445
4.39601e-07
0.00011635
4.30109e-07
0.000116256
4.22377e-07
0.000116164
4.1672e-07
0.000116071
4.13467e-07
0.000115979
4.12962e-07
0.000115886
4.15569e-07
0.000115791
4.21674e-07
0.000115694
4.31691e-07
0.000115594
4.46071e-07
0.000115489
4.65313e-07
0.000115379
4.89974e-07
0.000115262
5.20685e-07
0.000115136
5.5817e-07
0.000115001
6.03268e-07
0.000114855
6.56956e-07
0.000114695
7.20388e-07
0.000114519
7.94931e-07
0.000114326
8.82217e-07
0.000114112
9.84207e-07
0.000113874
1.10327e-06
0.000113608
1.24226e-06
0.000113312
1.40471e-06
0.000112981
1.59488e-06
0.000112609
1.81807e-06
0.000112193
2.0808e-06
0.000111726
2.39116e-06
0.000111203
2.75921e-06
0.000110618
3.19742e-06
0.000109969
3.72117e-06
0.000109253
4.34931e-06
0.000108474
5.10436e-06
0.000107645
6.0123e-06
0.000106794
7.10093e-06
0.00010597
8.39553e-06
0.000105255
9.90941e-06
0.000104772
1.16258e-05
0.000104671
1.34677e-05
0.000105085
1.52542e-05
1.66624e-05
0.000105966
0.000130574
2.61905e-08
0.000130548
1.66916e-07
0.000130481
4.08466e-07
0.000130364
6.85679e-07
0.000130201
9.17498e-07
0.000130009
1.05357e-06
0.000129806
1.0908e-06
0.000129603
1.05928e-06
0.00012941
9.97616e-07
0.000129226
9.35276e-07
0.000129051
8.87163e-07
0.000128883
8.56415e-07
0.000128718
8.39861e-07
0.000128556
8.32482e-07
0.000128396
8.29867e-07
0.000128236
8.29011e-07
0.000128077
8.28219e-07
0.000127919
8.26709e-07
0.000127761
8.24217e-07
0.000127605
8.20719e-07
0.00012745
8.16287e-07
0.000127296
8.10978e-07
0.000127143
8.04834e-07
0.000126992
7.9786e-07
0.000126842
7.90037e-07
0.000126695
7.81332e-07
0.000126549
7.71699e-07
0.000126405
7.61109e-07
0.000126264
7.49535e-07
0.000126125
7.36984e-07
0.000125988
7.23482e-07
0.000125855
7.09093e-07
0.000125724
6.93911e-07
0.000125596
6.78069e-07
0.000125471
6.61732e-07
0.000125348
6.45101e-07
0.000125229
6.28406e-07
0.000125113
6.11907e-07
0.000124999
5.95886e-07
0.000124888
5.8065e-07
0.000124779
5.66522e-07
0.000124672
5.53843e-07
0.000124567
5.42967e-07
0.000124463
5.34266e-07
0.00012436
5.28118e-07
0.000124257
5.24922e-07
0.000124154
5.25092e-07
0.000124049
5.29063e-07
0.000123943
5.37297e-07
0.000123834
5.50286e-07
0.000123721
5.68568e-07
0.000123603
5.9273e-07
0.00012348
6.23426e-07
0.000123349
6.61395e-07
0.00012321
7.07474e-07
0.000123061
7.62628e-07
0.000122901
8.27974e-07
0.000122727
9.04818e-07
0.000122538
9.94693e-07
0.000122332
1.09941e-06
0.000122106
1.22111e-06
0.000121858
1.36234e-06
0.000121585
1.52618e-06
0.000121285
1.71625e-06
0.000120954
1.93695e-06
0.00012059
2.19354e-06
0.00012019
2.49234e-06
0.000119751
2.84091e-06
0.000119274
3.2483e-06
0.000118757
3.72517e-06
0.000118206
4.284e-06
0.000117627
4.93893e-06
0.000117038
5.70544e-06
0.000116462
6.59912e-06
0.000115941
7.63339e-06
0.000115532
8.81503e-06
0.000115316
1.01365e-05
0.000115389
1.15644e-05
0.000115844
1.30231e-05
0.00011673
1.43798e-05
1.54426e-05
0.00011796
0.000139722
2.73612e-08
0.000139699
1.89276e-07
0.000139637
4.71305e-07
0.000139523
7.99109e-07
0.000139363
1.07801e-06
0.000139169
1.24728e-06
0.00013896
1.30064e-06
0.000138748
1.27123e-06
0.000138542
1.20338e-06
0.000138346
1.13189e-06
0.000138159
1.07507e-06
0.000137978
1.03754e-06
0.000137802
1.01631e-06
0.00013763
1.00592e-06
0.000137459
1.00139e-06
0.00013729
9.9924e-07
0.000137122
9.97448e-07
0.000136955
9.95029e-07
0.000136789
9.91617e-07
0.000136624
9.87142e-07
0.00013646
9.81643e-07
0.000136298
9.7518e-07
0.000136138
9.67779e-07
0.000135979
9.59443e-07
0.000135821
9.50148e-07
0.000135666
9.39853e-07
0.000135512
9.28512e-07
0.000135361
9.16087e-07
0.000135212
9.02557e-07
0.000135065
8.87927e-07
0.000134921
8.72238e-07
0.000134779
8.55562e-07
0.00013464
8.38017e-07
0.000134504
8.19756e-07
0.00013437
8.00978e-07
0.000134239
7.81917e-07
0.000134111
7.62845e-07
0.000133986
7.44064e-07
0.000133863
7.25907e-07
0.000133742
7.08729e-07
0.000133623
6.9291e-07
0.000133506
6.78847e-07
0.00013339
6.66954e-07
0.000133275
6.57661e-07
0.000133161
6.51411e-07
0.000133046
6.48666e-07
0.000132931
6.49903e-07
0.000132814
6.55627e-07
0.000132695
6.66366e-07
0.000132572
6.82686e-07
0.000132446
7.05194e-07
0.000132315
7.34557e-07
0.000132177
7.71507e-07
0.000132033
8.16866e-07
0.00013188
8.71557e-07
0.000131717
9.36636e-07
0.000131543
1.01331e-06
0.000131356
1.10298e-06
0.000131155
1.20726e-06
0.000130938
1.32803e-06
0.000130704
1.4675e-06
0.00013045
1.62824e-06
0.000130174
1.81326e-06
0.000129877
2.02608e-06
0.000129555
2.27081e-06
0.000129208
2.55226e-06
0.000128837
2.87594e-06
0.000128441
3.24825e-06
0.000128025
3.67638e-06
0.000127594
4.16835e-06
0.000127158
4.73282e-06
0.00012673
5.37866e-06
0.000126333
6.1142e-06
0.000125998
6.94593e-06
0.000125768
7.87624e-06
0.000125694
8.90013e-06
0.000125842
1.00004e-05
0.000126277
1.11413e-05
0.00012705
1.22625e-05
0.000128165
1.32759e-05
1.40724e-05
0.000129547
0.00014951
2.69268e-08
0.000149492
2.0757e-07
0.000149435
5.27849e-07
0.000149329
9.05693e-07
0.000149173
1.23366e-06
0.000148981
1.44019e-06
0.000148767
1.51455e-06
0.000148547
1.49158e-06
0.00014833
1.42052e-06
0.000148121
1.34137e-06
0.00014792
1.27613e-06
0.000147727
1.23136e-06
0.00014754
1.20465e-06
0.000147356
1.19039e-06
0.000147175
1.18318e-06
0.000146996
1.17912e-06
0.000146819
1.17583e-06
0.000146643
1.17214e-06
0.000146469
1.16753e-06
0.000146296
1.16186e-06
0.000146124
1.15514e-06
0.000145954
1.14739e-06
0.000145786
1.13863e-06
0.000145619
1.12886e-06
0.000145454
1.11804e-06
0.000145291
1.10613e-06
0.00014513
1.09308e-06
0.000144971
1.07885e-06
0.000144815
1.06342e-06
0.00014466
1.04679e-06
0.000144508
1.02904e-06
0.000144358
1.01023e-06
0.000144211
9.90502e-07
0.000144067
9.70044e-07
0.000143925
9.49077e-07
0.000143785
9.27872e-07
0.000143648
9.06738e-07
0.000143513
8.86018e-07
0.000143381
8.66091e-07
0.00014325
8.47361e-07
0.000143121
8.30258e-07
0.000142993
8.15232e-07
0.000142866
8.02751e-07
0.000142739
7.93301e-07
0.000142613
7.87381e-07
0.000142486
7.85509e-07
0.000142357
7.88221e-07
0.000142227
7.9608e-07
0.000142094
8.09671e-07
0.000141958
8.29617e-07
0.000141818
8.56585e-07
0.000141672
8.91295e-07
0.00014152
9.34538e-07
0.000141362
9.87186e-07
0.000141195
1.05021e-06
0.000141019
1.12472e-06
0.000140832
1.21194e-06
0.000140634
1.31329e-06
0.000140423
1.43039e-06
0.000140199
1.56507e-06
0.000139959
1.71945e-06
0.000139704
1.89595e-06
0.000139433
2.09731e-06
0.000139145
2.32667e-06
0.000138841
2.58755e-06
0.000138523
2.88391e-06
0.000138191
3.2201e-06
0.000137852
3.60085e-06
0.00013751
4.03116e-06
0.000137175
4.51609e-06
0.00013686
5.06047e-06
0.000136584
5.66833e-06
0.000136368
6.34219e-06
0.000136245
7.08188e-06
0.000136251
7.883e-06
0.000136429
8.73486e-06
0.000136824
9.61806e-06
0.000137476
1.05019e-05
0.000138408
1.13431e-05
0.00013961
1.20864e-05
1.26713e-05
0.000141024
0.000159984
2.47376e-08
0.000159971
2.21161e-07
0.000159922
5.7674e-07
0.000159824
1.00335e-06
0.000159676
1.38195e-06
0.000159487
1.62986e-06
0.000159271
1.73053e-06
0.000159044
1.71894e-06
0.000158817
1.64829e-06
0.000158595
1.56344e-06
0.000158381
1.49037e-06
0.000158175
1.43805e-06
0.000157975
1.40509e-06
0.000157781
1.38607e-06
0.000157589
1.37534e-06
0.000157401
1.36865e-06
0.000157215
1.36331e-06
0.00015703
1.35791e-06
0.000156848
1.35177e-06
0.000156667
1.34466e-06
0.000156488
1.33652e-06
0.00015631
1.32734e-06
0.000156134
1.31712e-06
0.00015596
1.30584e-06
0.000155788
1.29345e-06
0.000155617
1.27991e-06
0.000155449
1.26516e-06
0.000155283
1.24916e-06
0.000155119
1.23191e-06
0.000154957
1.21342e-06
0.000154797
1.19375e-06
0.00015464
1.173e-06
0.000154485
1.15133e-06
0.000154332
1.12895e-06
0.000154182
1.10611e-06
0.000154033
1.08311e-06
0.000153887
1.0603e-06
0.000153742
1.03805e-06
0.0001536
1.01678e-06
0.000153458
9.96956e-07
0.000153318
9.79034e-07
0.000153179
9.63518e-07
0.00015304
9.50922e-07
0.000152901
9.41778e-07
0.000152762
9.36636e-07
0.000152622
9.3606e-07
0.00015248
9.40634e-07
0.000152336
9.50962e-07
0.000152189
9.67676e-07
0.000152039
9.91437e-07
0.000151884
1.02295e-06
0.000151725
1.06296e-06
0.000151559
1.1123e-06
0.000151387
1.17183e-06
0.000151207
1.24256e-06
0.000151019
1.32555e-06
0.000150822
1.42202e-06
0.000150615
1.53332e-06
0.000150397
1.66095e-06
0.000150169
1.8066e-06
0.00014993
1.97216e-06
0.00014968
2.15972e-06
0.000149419
2.37159e-06
0.000149149
2.61029e-06
0.000148872
2.87855e-06
0.00014859
3.17924e-06
0.000148309
3.51534e-06
0.000148034
3.88981e-06
0.000147773
4.30541e-06
0.000147539
4.76448e-06
0.000147344
5.26858e-06
0.000147208
5.81803e-06
0.000147153
6.41131e-06
0.000147204
7.04431e-06
0.000147392
7.70939e-06
0.000147746
8.39444e-06
0.000148295
9.08192e-06
0.000149062
9.74828e-06
0.000150055
1.03642e-05
0.000151258
1.08964e-05
1.13117e-05
0.000152631
0.000171192
2.0764e-08
0.000171184
2.29768e-07
0.000171143
6.17215e-07
0.000171056
1.09073e-06
0.000170917
1.521e-06
0.000170733
1.81417e-06
0.000170517
1.94655e-06
0.000170285
1.95166e-06
0.000170048
1.88548e-06
0.000169814
1.79736e-06
0.000169588
1.71741e-06
0.000169369
1.65745e-06
0.000169157
1.61759e-06
0.000168951
1.59294e-06
0.00016875
1.57784e-06
0.000168552
1.56777e-06
0.000168357
1.55978e-06
0.000168164
1.55219e-06
0.000167974
1.54416e-06
0.000167785
1.53533e-06
0.000167598
1.52556e-06
0.000167413
1.5148e-06
0.00016723
1.503e-06
0.000167049
1.49012e-06
0.00016687
1.47613e-06
0.000166692
1.46095e-06
0.000166517
1.44454e-06
0.000166343
1.42685e-06
0.000166172
1.40789e-06
0.000166003
1.38768e-06
0.000165836
1.36629e-06
0.000165671
1.34385e-06
0.000165508
1.32053e-06
0.000165347
1.29655e-06
0.000165187
1.27221e-06
0.00016503
1.24781e-06
0.000164874
1.22375e-06
0.00016472
1.20044e-06
0.000164567
1.17832e-06
0.000164415
1.15789e-06
0.000164264
1.13965e-06
0.000164113
1.12414e-06
0.000163962
1.11192e-06
0.00016381
1.10355e-06
0.000163658
1.09961e-06
0.000163504
1.10072e-06
0.000163349
1.10748e-06
0.000163191
1.12052e-06
0.00016303
1.1405e-06
0.000162865
1.16811e-06
0.000162697
1.20405e-06
0.000162523
1.24908e-06
0.000162345
1.304e-06
0.00016216
1.36968e-06
0.000161969
1.44704e-06
0.000161771
1.53711e-06
0.000161566
1.64098e-06
0.000161353
1.75986e-06
0.000161133
1.89507e-06
0.000160906
2.04804e-06
0.000160672
2.22029e-06
0.000160433
2.41349e-06
0.000160189
2.62936e-06
0.000159944
2.86969e-06
0.000159701
3.1363e-06
0.000159464
3.43092e-06
0.000159239
3.75515e-06
0.000159033
4.1103e-06
0.000158856
4.49719e-06
0.00015872
4.91599e-06
0.000158637
5.36586e-06
0.000158625
5.84469e-06
0.000158703
6.34869e-06
0.000158889
6.87199e-06
0.000159207
7.40622e-06
0.000159676
7.94022e-06
0.000160312
8.45986e-06
0.000161127
8.94823e-06
0.000162119
9.38632e-06
0.000163275
9.7545e-06
1.00348e-05
0.000164566
0.000183185
1.51075e-08
0.000183181
2.33498e-07
0.000183149
6.49199e-07
0.000183073
1.16731e-06
0.000182944
1.64973e-06
0.000182767
1.99153e-06
0.000182553
2.16076e-06
0.000182317
2.1879e-06
0.000182072
2.13052e-06
0.000181828
2.04191e-06
0.00018159
1.95638e-06
0.000181359
1.88898e-06
0.000181136
1.84178e-06
0.000180919
1.81076e-06
0.000180707
1.79048e-06
0.0001805
1.77631e-06
0.000180296
1.76506e-06
0.000180095
1.7548e-06
0.000179897
1.7445e-06
0.000179701
1.73367e-06
0.000179507
1.72206e-06
0.000179314
1.70955e-06
0.000179124
1.69606e-06
0.000178936
1.68154e-06
0.00017875
1.66591e-06
0.000178566
1.64912e-06
0.000178383
1.6311e-06
0.000178203
1.61183e-06
0.000178025
1.59131e-06
0.000177848
1.56957e-06
0.000177673
1.5467e-06
0.0001775
1.52285e-06
0.000177329
1.4982e-06
0.00017716
1.473e-06
0.000176992
1.44756e-06
0.000176825
1.42222e-06
0.00017666
1.39739e-06
0.000176495
1.3735e-06
0.000176332
1.35104e-06
0.000176168
1.33052e-06
0.000176006
1.31248e-06
0.000175842
1.29748e-06
0.000175679
1.28609e-06
0.000175514
1.27892e-06
0.000175349
1.27657e-06
0.000175182
1.27966e-06
0.000175012
1.28881e-06
0.000174841
1.30468e-06
0.000174666
1.32791e-06
0.000174488
1.35918e-06
0.000174306
1.39919e-06
0.00017412
1.44865e-06
0.000173929
1.50832e-06
0.000173734
1.57899e-06
0.000173534
1.6615e-06
0.000173329
1.75674e-06
0.000173119
1.86564e-06
0.000172904
1.9892e-06
0.000172686
2.12846e-06
0.000172464
2.28451e-06
0.000172242
2.45846e-06
0.000172019
2.65144e-06
0.000171799
2.86455e-06
0.000171586
3.09882e-06
0.000171382
3.35514e-06
0.000171195
3.6342e-06
0.000171029
3.93639e-06
0.000170894
4.26165e-06
0.000170797
4.60937e-06
0.000170751
4.97817e-06
0.000170766
5.36578e-06
0.000170858
5.76881e-06
0.00017104
6.18256e-06
0.000171327
6.60091e-06
0.000171732
7.01619e-06
0.000172269
7.41919e-06
0.000172945
7.79934e-06
0.000173763
8.14505e-06
0.00017472
8.44436e-06
0.000175804
8.68587e-06
8.8599e-06
0.000176994
0.000196017
7.96586e-09
0.000196018
2.32809e-07
0.000195994
6.73266e-07
0.000195928
1.23345e-06
0.00019581
1.76793e-06
0.00019564
2.16102e-06
0.00019543
2.37161e-06
0.000195192
2.4258e-06
0.000194942
2.38154e-06
0.000194689
2.29546e-06
0.00019444
2.206e-06
0.000194198
2.13171e-06
0.000193963
2.077e-06
0.000193736
2.03909e-06
0.000193515
2.01297e-06
0.000193298
1.99405e-06
0.000193086
1.97896e-06
0.000192877
1.96556e-06
0.000192671
1.95264e-06
0.000192467
1.93952e-06
0.000192266
1.92586e-06
0.000192067
1.91147e-06
0.00019187
1.89621e-06
0.000191675
1.88e-06
0.000191482
1.86275e-06
0.000191291
1.84439e-06
0.000191101
1.82486e-06
0.000190914
1.80414e-06
0.000190728
1.78224e-06
0.000190544
1.75921e-06
0.000190362
1.73515e-06
0.000190181
1.71021e-06
0.000190002
1.6846e-06
0.000189824
1.65858e-06
0.000189647
1.63249e-06
0.00018947
1.60667e-06
0.000189295
1.58156e-06
0.00018912
1.5576e-06
0.000188945
1.53531e-06
0.000188771
1.5152e-06
0.000188596
1.49784e-06
0.00018842
1.4838e-06
0.000188244
1.47366e-06
0.000188067
1.46804e-06
0.000187888
1.46755e-06
0.000187707
1.4728e-06
0.000187524
1.48442e-06
0.000187339
1.50303e-06
0.000187151
1.52927e-06
0.00018696
1.56378e-06
0.000186766
1.6072e-06
0.000186569
1.66018e-06
0.000186369
1.7234e-06
0.000186165
1.79753e-06
0.000185959
1.88326e-06
0.000185749
1.98132e-06
0.000185538
2.09242e-06
0.000185326
2.21729e-06
0.000185114
2.35666e-06
0.000184903
2.51122e-06
0.000184696
2.68164e-06
0.000184495
2.8685e-06
0.000184304
3.07228e-06
0.000184126
3.29331e-06
0.000183966
3.53167e-06
0.00018383
3.78717e-06
0.000183724
4.05928e-06
0.000183655
4.34696e-06
0.000183633
4.64865e-06
0.000183665
4.96212e-06
0.000183764
5.28442e-06
0.000183937
5.61176e-06
0.000184197
5.93948e-06
0.000184553
6.26206e-06
0.000185012
6.57313e-06
0.000185582
6.86565e-06
0.000186266
7.13211e-06
0.000187063
7.36486e-06
0.000187967
7.55656e-06
0.000188968
7.7007e-06
7.7922e-06
0.000190052
0.000209748
-3.92134e-10
0.000209752
2.28399e-07
0.000209735
6.90464e-07
0.000209678
1.29019e-06
0.00020957
1.87614e-06
0.000209409
2.32234e-06
0.000209203
2.578e-06
0.000208966
2.66367e-06
0.000208711
2.63662e-06
0.000208451
2.55615e-06
0.000208193
2.46468e-06
0.000207941
2.3844e-06
0.000207697
2.32234e-06
0.00020746
2.27726e-06
0.000207229
2.24484e-06
0.000207004
2.22065e-06
0.000206783
2.20124e-06
0.000206566
2.1843e-06
0.000206353
2.16842e-06
0.000206142
2.15277e-06
0.000205933
2.13689e-06
0.000205727
2.1205e-06
0.000205523
2.10343e-06
0.000205322
2.08552e-06
0.000205122
2.0667e-06
0.000204924
2.04686e-06
0.000204727
2.02596e-06
0.000204533
2.00398e-06
0.000204339
1.98094e-06
0.000204148
1.95688e-06
0.000203958
1.93194e-06
0.000203768
1.90627e-06
0.00020358
1.88009e-06
0.000203393
1.85369e-06
0.000203206
1.82739e-06
0.00020302
1.80157e-06
0.000202834
1.77666e-06
0.000202649
1.75313e-06
0.000202463
1.73148e-06
0.000202276
1.71224e-06
0.000202089
1.69598e-06
0.000201901
1.68327e-06
0.000201712
1.6747e-06
0.000201522
1.67086e-06
0.00020133
1.67235e-06
0.000201136
1.67978e-06
0.00020094
1.69373e-06
0.000200743
1.7148e-06
0.000200543
1.74356e-06
0.00020034
1.7806e-06
0.000200136
1.82647e-06
0.00019993
1.88173e-06
0.000199722
1.94694e-06
0.000199513
2.02261e-06
0.000199303
2.10928e-06
0.000199093
2.20744e-06
0.000198884
2.31757e-06
0.000198678
2.44011e-06
0.000198477
2.57543e-06
0.000198281
2.72385e-06
0.000198094
2.88559e-06
0.000197919
3.06074e-06
0.00019776
3.24922e-06
0.00019762
3.45077e-06
0.000197505
3.66486e-06
0.000197419
3.89065e-06
0.000197369
4.12697e-06
0.000197361
4.37222e-06
0.000197404
4.62435e-06
0.000197503
4.88082e-06
0.000197666
5.13854e-06
0.000197902
5.39391e-06
0.000198216
5.64283e-06
0.000198615
5.88073e-06
0.000199104
6.10271e-06
0.000199683
6.30367e-06
0.000200354
6.4785e-06
0.000201114
6.62232e-06
0.000201957
6.73074e-06
0.000202875
6.80016e-06
6.82802e-06
0.000203856
0.00022444
-9.68904e-09
0.000224447
2.21074e-07
0.000224436
7.02108e-07
0.000224387
1.33901e-06
0.000224288
1.97544e-06
0.000224135
2.47578e-06
0.000223934
2.77927e-06
0.000223698
2.90009e-06
0.000223441
2.89392e-06
0.000223176
2.82208e-06
0.00022291
2.73068e-06
0.00022265
2.6456e-06
0.000222397
2.57669e-06
0.00022215
2.52445e-06
0.000221911
2.4855e-06
0.000221678
2.4557e-06
0.000221449
2.43162e-06
0.000221224
2.41082e-06
0.000221003
2.39172e-06
0.000220785
2.37335e-06
0.00022057
2.35513e-06
0.000220357
2.33668e-06
0.000220146
2.31777e-06
0.000219937
2.29823e-06
0.00021973
2.27792e-06
0.000219525
2.25675e-06
0.000219321
2.23467e-06
0.000219119
2.21166e-06
0.000218918
2.18774e-06
0.000218719
2.16298e-06
0.00021852
2.1375e-06
0.000218322
2.11148e-06
0.000218125
2.08515e-06
0.000217928
2.05879e-06
0.000217732
2.03273e-06
0.000217535
2.00736e-06
0.000217338
1.9831e-06
0.000217141
1.96043e-06
0.000216944
1.93984e-06
0.000216745
1.92185e-06
0.000216546
1.90702e-06
0.000216346
1.8959e-06
0.000216144
1.88906e-06
0.000215941
1.88707e-06
0.000215736
1.8905e-06
0.00021553
1.89991e-06
0.000215323
1.91584e-06
0.000215113
1.93881e-06
0.000214903
1.96934e-06
0.000214691
2.0079e-06
0.000214478
2.05496e-06
0.000214265
2.11096e-06
0.000214053
2.17627e-06
0.000213841
2.25128e-06
0.000213631
2.3363e-06
0.000213424
2.4316e-06
0.000213222
2.53741e-06
0.000213026
2.65386e-06
0.000212838
2.78102e-06
0.000212661
2.91884e-06
0.000212498
3.06715e-06
0.000212351
3.22562e-06
0.000212226
3.39375e-06
0.000212124
3.57084e-06
0.000212052
3.75592e-06
0.000212013
3.94778e-06
0.000212014
4.14489e-06
0.00021206
4.34543e-06
0.000212156
4.54721e-06
0.000212308
4.74773e-06
0.000212521
4.94418e-06
0.000212801
5.13343e-06
0.00021315
5.31213e-06
0.000213573
5.47677e-06
0.000214071
5.62376e-06
0.000214644
5.74958e-06
0.00021529
5.8509e-06
0.000216006
5.92472e-06
0.000216787
5.96853e-06
0.000217625
5.98043e-06
5.95926e-06
0.000218512
0.000240161
-1.9662e-08
0.00024017
2.11636e-07
0.000240163
7.09567e-07
0.00024012
1.38155e-06
0.000240029
2.06726e-06
0.000239883
2.62204e-06
0.000239687
2.97518e-06
0.000239454
3.13398e-06
0.000239196
3.1518e-06
0.000238928
3.0914e-06
0.000238657
3.00224e-06
0.00023839
2.91377e-06
0.000238129
2.83878e-06
0.000237875
2.77972e-06
0.000237627
2.73424e-06
0.000237386
2.6987e-06
0.00023715
2.66975e-06
0.000236918
2.64488e-06
0.000236689
2.6224e-06
0.000236464
2.6012e-06
0.000236242
2.58057e-06
0.000236022
2.56007e-06
0.000235804
2.53938e-06
0.000235588
2.51829e-06
0.000235373
2.49665e-06
0.000235161
2.47435e-06
0.00023495
2.45132e-06
0.000234739
2.42755e-06
0.00023453
2.40307e-06
0.000234322
2.37794e-06
0.000234115
2.3523e-06
0.000233908
2.32633e-06
0.000233701
2.30025e-06
0.000233494
2.27435e-06
0.000233287
2.24895e-06
0.00023308
2.22444e-06
0.000232872
2.20123e-06
0.000232664
2.17978e-06
0.000232454
2.16056e-06
0.000232244
2.14408e-06
0.000232032
2.13086e-06
0.00023182
2.12144e-06
0.000231606
2.11634e-06
0.000231391
2.11608e-06
0.000231175
2.12119e-06
0.000230957
2.13216e-06
0.000230739
2.14945e-06
0.00023052
2.17352e-06
0.0002303
2.20478e-06
0.000230081
2.2436e-06
0.000229862
2.29031e-06
0.000229645
2.3452e-06
0.000229431
2.4085e-06
0.000229219
2.48041e-06
0.000229013
2.56103e-06
0.000228812
2.65042e-06
0.00022862
2.74855e-06
0.000228437
2.85529e-06
0.000228267
2.97043e-06
0.000228111
3.09362e-06
0.000227973
3.22438e-06
0.000227856
3.36208e-06
0.000227764
3.50592e-06
0.000227699
3.65492e-06
0.000227667
3.80789e-06
0.000227672
3.96344e-06
0.000227717
4.11993e-06
0.000227806
4.27555e-06
0.000227945
4.42825e-06
0.000228137
4.57579e-06
0.000228386
4.71578e-06
0.000228694
4.84572e-06
0.000229063
4.96302e-06
0.000229494
5.06512e-06
0.000229989
5.14954e-06
0.000230544
5.21395e-06
0.000231158
5.25628e-06
0.000231828
5.27478e-06
0.000232548
5.26811e-06
0.000233313
5.23538e-06
5.17616e-06
0.000234115
0.000256982
-3.00938e-08
0.000256993
2.00792e-07
0.000256989
7.14107e-07
0.000256951
1.41942e-06
0.000256866
2.15308e-06
0.000256726
2.76203e-06
0.000256536
3.16581e-06
0.000256305
3.36461e-06
0.000256049
3.40894e-06
0.000255778
3.36248e-06