/*--------------------------------*- C++ -*----------------------------------*\
| =========                 |                                                 |
| \\      /  F ield         | OpenFOAM: The Open Source CFD Toolbox           |
|  \\    /   O peration     | Version:  4.1                                   |
|   \\  /    A nd           | Web:      www.OpenFOAM.org                      |
|    \\/     M anipulation  |                                                 |
\*---------------------------------------------------------------------------*/
FoamFile
{
    version     2.0;
    format      ascii;
    class       volScalarField;
    location    "0.6";
    object      T;
}
// * * * * * * * * * * * * * * * * * * * * * * * * * * * * * * * * * * * * * //

dimensions      [0 0 0 1 0 0 0];

internalField   nonuniform List<scalar> 
12013
(
300
300
300
300
300
300
300
300.001
300.001
300.001
300.001
300.002
300.002
300.003
300.003
300.004
300.005
300.006
300.007
300.009
300.01
300.012
300.014
300.017
300.02
300.023
300.026
300.03
300.034
300.039
300.044
300.05
300.056
300.063
300.07
300.078
300.087
300.096
300.106
300.117
300.129
300.142
300.155
300.169
300.185
300.201
300.218
300.236
300.255
300.275
300.296
300.319
300.342
300.367
300.393
300.42
300.448
300.478
300.509
300.542
300.576
300.611
300.648
300.687
300.727
300.769
300.813
300.859
300.907
300.957
301.009
301.064
301.122
301.184
301.248
301.317
301.391
301.471
301.558
301.657
301.772
300
300
300
300
300
300
300
300.001
300.001
300.001
300.001
300.002
300.002
300.003
300.003
300.004
300.005
300.006
300.007
300.009
300.01
300.012
300.014
300.017
300.019
300.023
300.026
300.03
300.034
300.039
300.044
300.05
300.056
300.063
300.07
300.078
300.087
300.096
300.106
300.117
300.129
300.142
300.155
300.169
300.184
300.201
300.218
300.236
300.255
300.275
300.296
300.319
300.342
300.367
300.393
300.42
300.448
300.478
300.509
300.541
300.575
300.611
300.648
300.686
300.726
300.768
300.812
300.858
300.905
300.955
301.008
301.063
301.12
301.181
301.245
301.313
301.386
301.464
301.549
301.641
301.743
300
300
300
300
300
300
300
300.001
300.001
300.001
300.001
300.002
300.002
300.003
300.003
300.004
300.005
300.006
300.007
300.009
300.01
300.012
300.014
300.017
300.019
300.023
300.026
300.03
300.034
300.039
300.044
300.05
300.056
300.063
300.07
300.078
300.087
300.096
300.106
300.117
300.129
300.141
300.155
300.169
300.184
300.2
300.217
300.235
300.255
300.275
300.296
300.318
300.342
300.366
300.392
300.419
300.448
300.477
300.508
300.54
300.574
300.61
300.646
300.685
300.725
300.766
300.81
300.855
300.903
300.952
301.004
301.059
301.116
301.175
301.239
301.305
301.376
301.451
301.53
301.615
301.704
300
300
300
300
300
300
300
300.001
300.001
300.001
300.001
300.002
300.002
300.003
300.003
300.004
300.005
300.006
300.007
300.009
300.01
300.012
300.014
300.017
300.019
300.023
300.026
300.03
300.034
300.039
300.044
300.049
300.056
300.062
300.07
300.078
300.087
300.096
300.106
300.117
300.129
300.141
300.155
300.169
300.184
300.2
300.217
300.235
300.254
300.274
300.295
300.318
300.341
300.365
300.391
300.418
300.446
300.476
300.507
300.539
300.573
300.608
300.644
300.682
300.722
300.763
300.807
300.852
300.899
300.948
300.999
301.052
301.108
301.167
301.228
301.292
301.36
301.431
301.505
301.581
301.66
300
300
300
300
300
300
300
300.001
300.001
300.001
300.001
300.002
300.002
300.003
300.003
300.004
300.005
300.006
300.007
300.009
300.01
300.012
300.014
300.017
300.019
300.022
300.026
300.03
300.034
300.039
300.044
300.049
300.056
300.062
300.07
300.078
300.086
300.096
300.106
300.117
300.128
300.141
300.154
300.168
300.183
300.199
300.216
300.234
300.253
300.273
300.294
300.317
300.34
300.364
300.39
300.417
300.445
300.474
300.505
300.537
300.57
300.605
300.641
300.679
300.718
300.759
300.802
300.846
300.892
300.941
300.991
301.043
301.097
301.154
301.213
301.275
301.338
301.405
301.473
301.543
301.613
300
300
300
300
300
300
300
300.001
300.001
300.001
300.001
300.002
300.002
300.003
300.003
300.004
300.005
300.006
300.007
300.009
300.01
300.012
300.014
300.017
300.019
300.022
300.026
300.03
300.034
300.038
300.044
300.049
300.055
300.062
300.07
300.078
300.086
300.096
300.106
300.116
300.128
300.14
300.154
300.168
300.183
300.199
300.216
300.234
300.252
300.272
300.293
300.315
300.338
300.363
300.388
300.415
300.443
300.472
300.502
300.534
300.567
300.601
300.637
300.674
300.713
300.753
300.795
300.839
300.884
300.931
300.98
301.031
301.083
301.138
301.194
301.252
301.312
301.374
301.436
301.5
301.563
300
300
300
300
300
300
300
300.001
300.001
300.001
300.001
300.002
300.002
300.003
300.003
300.004
300.005
300.006
300.007
300.009
300.01
300.012
300.014
300.017
300.019
300.022
300.026
300.029
300.034
300.038
300.043
300.049
300.055
300.062
300.069
300.077
300.086
300.095
300.105
300.116
300.127
300.14
300.153
300.167
300.182
300.198
300.215
300.232
300.251
300.271
300.292
300.313
300.336
300.36
300.386
300.412
300.44
300.468
300.498
300.53
300.562
300.596
300.632
300.668
300.706
300.746
300.787
300.829
300.873
300.919
300.966
301.015
301.066
301.118
301.171
301.226
301.282
301.339
301.396
301.454
301.511
300
300
300
300
300
300
300
300.001
300.001
300.001
300.001
300.002
300.002
300.003
300.003
300.004
300.005
300.006
300.007
300.009
300.01
300.012
300.014
300.017
300.019
300.022
300.026
300.029
300.034
300.038
300.043
300.049
300.055
300.062
300.069
300.077
300.085
300.095
300.105
300.115
300.127
300.139
300.152
300.166
300.181
300.197
300.213
300.231
300.249
300.269
300.29
300.311
300.334
300.358
300.383
300.409
300.436
300.464
300.494
300.525
300.557
300.59
300.625
300.661
300.698
300.736
300.776
300.818
300.86
300.904
300.95
300.996
301.044
301.094
301.144
301.195
301.247
301.3
301.352
301.405
301.457
300
300
300
300
300
300
300
300.001
300.001
300.001
300.001
300.002
300.002
300.003
300.003
300.004
300.005
300.006
300.007
300.009
300.01
300.012
300.014
300.016
300.019
300.022
300.025
300.029
300.033
300.038
300.043
300.049
300.055
300.061
300.069
300.076
300.085
300.094
300.104
300.115
300.126
300.138
300.151
300.165
300.179
300.195
300.212
300.229
300.247
300.267
300.287
300.308
300.331
300.354
300.379
300.404
300.431
300.459
300.488
300.518
300.55
300.582
300.616
300.651
300.687
300.725
300.763
300.803
300.844
300.887
300.93
300.974
301.02
301.066
301.113
301.161
301.209
301.257
301.306
301.353
301.401
300
300
300
300
300
300
300
300.001
300.001
300.001
300.001
300.002
300.002
300.003
300.003
300.004
300.005
300.006
300.007
300.009
300.01
300.012
300.014
300.016
300.019
300.022
300.025
300.029
300.033
300.038
300.043
300.048
300.054
300.061
300.068
300.076
300.084
300.093
300.103
300.114
300.125
300.137
300.15
300.163
300.178
300.193
300.209
300.227
300.245
300.264
300.284
300.305
300.327
300.35
300.374
300.399
300.426
300.453
300.481
300.511
300.541
300.573
300.606
300.64
300.675
300.711
300.748
300.786
300.826
300.866
300.907
300.949
300.992
301.035
301.079
301.123
301.168
301.212
301.256
301.3
301.343
300
300
300
300
300
300
300
300.001
300.001
300.001
300.001
300.002
300.002
300.003
300.003
300.004
300.005
300.006
300.007
300.008
300.01
300.012
300.014
300.016
300.019
300.022
300.025
300.029
300.033
300.037
300.042
300.048
300.054
300.06
300.067
300.075
300.083
300.092
300.102
300.112
300.123
300.135
300.148
300.161
300.176
300.191
300.207
300.224
300.242
300.26
300.28
300.301
300.322
300.345
300.368
300.393
300.419
300.445
300.473
300.502
300.531
300.562
300.594
300.626
300.66
300.695
300.73
300.767
300.804
300.842
300.881
300.921
300.961
301.001
301.042
301.083
301.124
301.164
301.205
301.245
301.284
300
300
300
300
300
300
300
300.001
300.001
300.001
300.001
300.002
300.002
300.003
300.003
300.004
300.005
300.006
300.007
300.008
300.01
300.012
300.014
300.016
300.019
300.022
300.025
300.028
300.032
300.037
300.042
300.047
300.053
300.06
300.067
300.074
300.082
300.091
300.101
300.111
300.122
300.134
300.146
300.159
300.173
300.188
300.204
300.22
300.238
300.256
300.275
300.296
300.317
300.339
300.362
300.386
300.411
300.436
300.463
300.491
300.52
300.549
300.58
300.611
300.643
300.676
300.71
300.745
300.78
300.816
300.852
300.889
300.926
300.964
301.002
301.039
301.077
301.114
301.151
301.188
301.223
300
300
300
300
300
300
300
300.001
300.001
300.001
300.001
300.002
300.002
300.003
300.003
300.004
300.005
300.006
300.007
300.008
300.01
300.012
300.014
300.016
300.018
300.021
300.025
300.028
300.032
300.036
300.041
300.047
300.052
300.059
300.066
300.073
300.081
300.09
300.099
300.109
300.12
300.131
300.144
300.157
300.17
300.185
300.2
300.216
300.233
300.251
300.27
300.29
300.31
300.332
300.354
300.377
300.401
300.426
300.452
300.478
300.506
300.534
300.563
300.593
300.624
300.655
300.687
300.72
300.753
300.786
300.82
300.855
300.889
300.924
300.959
300.993
301.028
301.062
301.096
301.129
301.162
300
300
300
300
300
300
300
300.001
300.001
300.001
300.001
300.002
300.002
300.003
300.003
300.004
300.005
300.006
300.007
300.008
300.01
300.011
300.013
300.016
300.018
300.021
300.024
300.028
300.032
300.036
300.041
300.046
300.052
300.058
300.065
300.072
300.08
300.088
300.097
300.107
300.118
300.129
300.141
300.153
300.167
300.181
300.196
300.212
300.228
300.246
300.264
300.283
300.303
300.323
300.345
300.367
300.39
300.414
300.439
300.464
300.49
300.517
300.545
300.573
300.602
300.632
300.662
300.692
300.723
300.754
300.786
300.818
300.85
300.881
300.913
300.945
300.977
301.008
301.039
301.069
301.099
300
300
300
300
300
300
300
300.001
300.001
300.001
300.001
300.002
300.002
300.003
300.003
300.004
300.005
300.006
300.007
300.008
300.01
300.011
300.013
300.015
300.018
300.021
300.024
300.027
300.031
300.035
300.04
300.045
300.051
300.057
300.063
300.07
300.078
300.086
300.095
300.105
300.115
300.126
300.138
300.15
300.163
300.177
300.191
300.206
300.222
300.239
300.257
300.275
300.294
300.314
300.334
300.356
300.378
300.401
300.424
300.448
300.473
300.499
300.525
300.551
300.578
300.606
300.634
300.662
300.691
300.72
300.749
300.778
300.808
300.837
300.866
300.895
300.924
300.952
300.98
301.008
301.035
300
300
300
300
300
300
300
300.001
300.001
300.001
300.001
300.002
300.002
300.002
300.003
300.004
300.005
300.006
300.007
300.008
300.009
300.011
300.013
300.015
300.017
300.02
300.023
300.027
300.03
300.034
300.039
300.044
300.049
300.055
300.062
300.069
300.076
300.084
300.093
300.102
300.112
300.123
300.134
300.146
300.158
300.172
300.185
300.2
300.216
300.232
300.248
300.266
300.284
300.303
300.323
300.343
300.364
300.385
300.408
300.43
300.454
300.478
300.502
300.527
300.552
300.578
300.604
300.63
300.657
300.683
300.71
300.737
300.763
300.79
300.817
300.843
300.869
300.895
300.92
300.945
300.97
300
300
300
300
300
300
300
300.001
300.001
300.001
300.001
300.002
300.002
300.002
300.003
300.004
300.004
300.005
300.006
300.008
300.009
300.011
300.013
300.015
300.017
300.02
300.023
300.026
300.03
300.034
300.038
300.043
300.048
300.054
300.06
300.067
300.074
300.082
300.09
300.099
300.109
300.119
300.13
300.141
300.153
300.166
300.179
300.193
300.208
300.223
300.239
300.256
300.273
300.291
300.31
300.329
300.348
300.369
300.389
300.411
300.433
300.455
300.478
300.501
300.524
300.548
300.572
300.596
300.62
300.644
300.669
300.693
300.718
300.742
300.766
300.79
300.813
300.837
300.86
300.882
300.905
300
300
300
300
300
300
300
300.001
300.001
300.001
300.001
300.002
300.002
300.002
300.003
300.004
300.004
300.005
300.006
300.007
300.009
300.01
300.012
300.014
300.017
300.019
300.022
300.025
300.029
300.032
300.037
300.041
300.046
300.052
300.058
300.064
300.071
300.079
300.087
300.096
300.105
300.114
300.125
300.136
300.147
300.159
300.172
300.185
300.199
300.214
300.229
300.245
300.261
300.278
300.295
300.313
300.331
300.35
300.37
300.39
300.41
300.43
300.451
300.473
300.494
300.516
300.538
300.56
300.582
300.604
300.626
300.648
300.67
300.692
300.714
300.735
300.757
300.778
300.798
300.819
300.839
300
300
300
300
300
300
300
300.001
300.001
300.001
300.001
300.001
300.002
300.002
300.003
300.003
300.004
300.005
300.006
300.007
300.009
300.01
300.012
300.014
300.016
300.018
300.021
300.024
300.028
300.031
300.035
300.04
300.045
300.05
300.056
300.062
300.069
300.076
300.083
300.092
300.1
300.11
300.119
300.13
300.141
300.152
300.164
300.177
300.19
300.203
300.217
300.232
300.247
300.263
300.279
300.296
300.313
300.331
300.348
300.367
300.385
300.404
300.423
300.443
300.462
300.482
300.502
300.522
300.542
300.562
300.582
300.602
300.622
300.641
300.661
300.68
300.699
300.718
300.737
300.755
300.773
300
300
300
300
300
300
300
300.001
300.001
300.001
300.001
300.001
300.002
300.002
300.003
300.003
300.004
300.005
300.006
300.007
300.008
300.01
300.011
300.013
300.015
300.018
300.02
300.023
300.026
300.03
300.034
300.038
300.043
300.048
300.053
300.059
300.066
300.072
300.08
300.087
300.095
300.104
300.113
300.123
300.133
300.144
300.155
300.167
300.179
300.192
300.205
300.219
300.233
300.247
300.262
300.278
300.293
300.309
300.326
300.342
300.359
300.377
300.394
300.412
300.429
300.447
300.465
300.483
300.501
300.519
300.537
300.555
300.573
300.59
300.608
300.625
300.642
300.659
300.675
300.692
300.708
300
300
300
300
300
300
300
300
300.001
300.001
300.001
300.001
300.002
300.002
300.003
300.003
300.004
300.005
300.006
300.007
300.008
300.009
300.011
300.013
300.015
300.017
300.019
300.022
300.025
300.029
300.032
300.036
300.041
300.045
300.051
300.056
300.062
300.068
300.075
300.082
300.09
300.098
300.107
300.116
300.125
300.135
300.146
300.157
300.168
300.18
300.192
300.204
300.217
300.231
300.244
300.258
300.272
300.287
300.302
300.317
300.332
300.348
300.364
300.379
300.395
300.411
300.427
300.443
300.459
300.475
300.491
300.507
300.523
300.539
300.554
300.569
300.584
300.599
300.614
300.629
300.643
300
300
300
300
300
300
300
300
300.001
300.001
300.001
300.001
300.002
300.002
300.002
300.003
300.004
300.004
300.005
300.006
300.007
300.009
300.01
300.012
300.014
300.016
300.018
300.021
300.024
300.027
300.03
300.034
300.038
300.043
300.048
300.053
300.058
300.064
300.07
300.077
300.084
300.092
300.1
300.108
300.117
300.126
300.136
300.146
300.156
300.167
300.178
300.189
300.201
300.213
300.225
300.238
300.251
300.264
300.277
300.291
300.304
300.318
300.332
300.346
300.361
300.375
300.389
300.403
300.417
300.431
300.446
300.46
300.473
300.487
300.501
300.514
300.528
300.541
300.554
300.566
300.579
300
300
300
300
300
300
300
300
300.001
300.001
300.001
300.001
300.002
300.002
300.002
300.003
300.003
300.004
300.005
300.006
300.007
300.008
300.01
300.011
300.013
300.015
300.017
300.02
300.022
300.025
300.028
300.032
300.036
300.04
300.044
300.049
300.054
300.06
300.065
300.072
300.078
300.085
300.092
300.1
300.108
300.116
300.125
300.134
300.143
300.153
300.163
300.173
300.184
300.194
300.206
300.217
300.228
300.24
300.252
300.264
300.276
300.288
300.301
300.313
300.325
300.338
300.35
300.363
300.375
300.388
300.4
300.412
300.424
300.436
300.448
300.46
300.472
300.483
300.494
300.506
300.516
300
300
300
300
300
300
300
300
300.001
300.001
300.001
300.001
300.001
300.002
300.002
300.003
300.003
300.004
300.005
300.005
300.007
300.008
300.009
300.01
300.012
300.014
300.016
300.018
300.021
300.023
300.026
300.029
300.033
300.037
300.041
300.045
300.05
300.055
300.06
300.066
300.072
300.078
300.084
300.091
300.098
300.106
300.114
300.122
300.13
300.139
300.148
300.157
300.166
300.176
300.185
300.195
300.205
300.216
300.226
300.237
300.247
300.258
300.269
300.28
300.291
300.301
300.312
300.323
300.334
300.345
300.355
300.366
300.376
300.387
300.397
300.407
300.417
300.427
300.437
300.447
300.456
300
300
300
300
300
300
300
300
300
300.001
300.001
300.001
300.001
300.002
300.002
300.002
300.003
300.004
300.004
300.005
300.006
300.007
300.008
300.01
300.011
300.013
300.015
300.017
300.019
300.021
300.024
300.027
300.03
300.033
300.037
300.041
300.045
300.05
300.054
300.059
300.065
300.07
300.076
300.082
300.089
300.095
300.102
300.109
300.117
300.124
300.132
300.14
300.148
300.157
300.165
300.174
300.183
300.191
300.201
300.21
300.219
300.228
300.237
300.247
300.256
300.265
300.275
300.284
300.293
300.303
300.312
300.321
300.33
300.339
300.347
300.356
300.365
300.373
300.382
300.39
300.398
300
300
300
300
300
300
300
300
300
300.001
300.001
300.001
300.001
300.001
300.002
300.002
300.003
300.003
300.004
300.005
300.005
300.006
300.007
300.009
300.01
300.011
300.013
300.015
300.017
300.019
300.022
300.024
300.027
300.03
300.033
300.037
300.04
300.044
300.049
300.053
300.058
300.063
300.068
300.073
300.079
300.084
300.09
300.097
300.103
300.11
300.116
300.123
300.13
300.138
300.145
300.152
300.16
300.168
300.175
300.183
300.191
300.199
300.207
300.215
300.223
300.231
300.238
300.246
300.254
300.262
300.27
300.277
300.285
300.293
300.3
300.307
300.315
300.322
300.329
300.336
300.343
300
300
300
300
300
300
300
300
300
300
300.001
300.001
300.001
300.001
300.002
300.002
300.002
300.003
300.003
300.004
300.005
300.006
300.007
300.008
300.009
300.01
300.012
300.013
300.015
300.017
300.019
300.021
300.024
300.027
300.029
300.032
300.036
300.039
300.043
300.047
300.051
300.055
300.059
300.064
300.069
300.074
300.079
300.084
300.09
300.095
300.101
300.107
300.113
300.119
300.125
300.132
300.138
300.144
300.151
300.157
300.164
300.171
300.177
300.184
300.191
300.197
300.204
300.21
300.217
300.224
300.23
300.236
300.243
300.249
300.255
300.261
300.267
300.273
300.279
300.285
300.291
300
300
300
300
300
300
300
300
300
300
300.001
300.001
300.001
300.001
300.001
300.002
300.002
300.002
300.003
300.004
300.004
300.005
300.006
300.007
300.008
300.009
300.01
300.012
300.013
300.015
300.017
300.019
300.021
300.023
300.026
300.028
300.031
300.034
300.037
300.04
300.044
300.047
300.051
300.055
300.059
300.063
300.067
300.072
300.077
300.081
300.086
300.091
300.096
300.101
300.106
300.112
300.117
300.122
300.128
300.133
300.139
300.144
300.149
300.155
300.16
300.166
300.171
300.177
300.182
300.188
300.193
300.198
300.203
300.209
300.214
300.219
300.224
300.229
300.233
300.238
300.243
300
300
300
300
300
300
300
300
300
300
300
300.001
300.001
300.001
300.001
300.001
300.002
300.002
300.003
300.003
300.004
300.004
300.005
300.006
300.007
300.008
300.009
300.01
300.011
300.013
300.014
300.016
300.018
300.02
300.022
300.024
300.026
300.029
300.031
300.034
300.037
300.04
300.043
300.046
300.05
300.053
300.057
300.06
300.064
300.068
300.072
300.076
300.08
300.084
300.088
300.093
300.097
300.101
300.106
300.11
300.115
300.119
300.124
300.128
300.132
300.137
300.141
300.146
300.15
300.154
300.159
300.163
300.167
300.171
300.175
300.18
300.184
300.188
300.191
300.195
300.199
300
300
300
300
300
300
300
300
300
300
300
300
300.001
300.001
300.001
300.001
300.001
300.002
300.002
300.003
300.003
300.004
300.004
300.005
300.006
300.006
300.007
300.008
300.009
300.011
300.012
300.013
300.015
300.016
300.018
300.02
300.022
300.024
300.026
300.028
300.03
300.033
300.035
300.038
300.041
300.044
300.046
300.049
300.052
300.056
300.059
300.062
300.065
300.069
300.072
300.075
300.079
300.082
300.086
300.089
300.093
300.097
300.1
300.104
300.107
300.111
300.114
300.118
300.121
300.124
300.128
300.131
300.135
300.138
300.141
300.144
300.148
300.151
300.154
300.157
300.16
300
300
300
300
300
300
300
300
300
300
300
300
300
300.001
300.001
300.001
300.001
300.001
300.002
300.002
300.002
300.003
300.003
300.004
300.004
300.005
300.006
300.007
300.008
300.009
300.01
300.011
300.012
300.013
300.015
300.016
300.018
300.019
300.021
300.023
300.025
300.026
300.028
300.031
300.033
300.035
300.037
300.04
300.042
300.044
300.047
300.049
300.052
300.055
300.057
300.06
300.063
300.065
300.068
300.071
300.074
300.076
300.079
300.082
300.085
300.087
300.09
300.093
300.095
300.098
300.101
300.103
300.106
300.108
300.111
300.113
300.116
300.118
300.121
300.123
300.125
300
300
300
300
300
300
300
300
300
300
300
300
300
300
300.001
300.001
300.001
300.001
300.001
300.002
300.002
300.002
300.003
300.003
300.004
300.004
300.005
300.005
300.006
300.007
300.008
300.008
300.009
300.01
300.011
300.013
300.014
300.015
300.016
300.018
300.019
300.021
300.022
300.024
300.025
300.027
300.029
300.031
300.033
300.034
300.036
300.038
300.04
300.042
300.044
300.046
300.048
300.05
300.052
300.055
300.057
300.059
300.061
300.063
300.065
300.067
300.069
300.071
300.073
300.075
300.077
300.079
300.081
300.083
300.085
300.087
300.089
300.09
300.092
300.094
300.096
300
300
300
300
300
300
300
300
300
300
300
300
300
300
300
300
300.001
300.001
300.001
300.001
300.001
300.002
300.002
300.002
300.003
300.003
300.003
300.004
300.005
300.005
300.006
300.006
300.007
300.008
300.009
300.01
300.01
300.011
300.012
300.013
300.014
300.016
300.017
300.018
300.019
300.02
300.022
300.023
300.024
300.026
300.027
300.029
300.03
300.032
300.033
300.035
300.036
300.038
300.039
300.041
300.042
300.044
300.045
300.047
300.048
300.05
300.051
300.053
300.054
300.056
300.057
300.059
300.06
300.062
300.063
300.064
300.066
300.067
300.068
300.07
300.071
300
300
300
300
300
300
300
300
300
300
300
300
300
300
300
300
300
300
300.001
300.001
300.001
300.001
300.001
300.002
300.002
300.002
300.002
300.003
300.003
300.004
300.004
300.005
300.005
300.006
300.006
300.007
300.008
300.008
300.009
300.01
300.011
300.011
300.012
300.013
300.014
300.015
300.016
300.017
300.018
300.019
300.02
300.021
300.022
300.023
300.024
300.025
300.026
300.027
300.028
300.029
300.03
300.032
300.033
300.034
300.035
300.036
300.037
300.038
300.039
300.04
300.041
300.042
300.043
300.044
300.045
300.046
300.047
300.048
300.049
300.05
300.051
300
300
300
300
300
300
300
300
300
300
300
300
300
300
300
300
300
300
300
300
300.001
300.001
300.001
300.001
300.001
300.001
300.002
300.002
300.002
300.002
300.003
300.003
300.004
300.004
300.004
300.005
300.005
300.006
300.006
300.007
300.007
300.008
300.008
300.009
300.01
300.01
300.011
300.012
300.012
300.013
300.014
300.014
300.015
300.016
300.017
300.017
300.018
300.019
300.02
300.02
300.021
300.022
300.023
300.023
300.024
300.025
300.026
300.026
300.027
300.028
300.028
300.029
300.03
300.031
300.031
300.032
300.033
300.033
300.034
300.034
300.035
300
300
300
300
300
300
300
300
300
300
300
300
300
300
300
300
300
300
300
300
300
300
300
300.001
300.001
300.001
300.001
300.001
300.001
300.002
300.002
300.002
300.002
300.002
300.003
300.003
300.003
300.004
300.004
300.004
300.005
300.005
300.006
300.006
300.006
300.007
300.007
300.008
300.008
300.009
300.009
300.009
300.01
300.01
300.011
300.011
300.012
300.012
300.013
300.013
300.014
300.014
300.015
300.015
300.016
300.016
300.017
300.017
300.018
300.018
300.019
300.019
300.02
300.02
300.021
300.021
300.021
300.022
300.022
300.023
300.023
300
300
300
300
300
300
300
300
300
300
300
300
300
300
300
300
300
300
300
300
300
300
300
300
300
300
300
300.001
300.001
300.001
300.001
300.001
300.001
300.001
300.002
300.002
300.002
300.002
300.002
300.003
300.003
300.003
300.003
300.004
300.004
300.004
300.004
300.005
300.005
300.005
300.006
300.006
300.006
300.006
300.007
300.007
300.007
300.008
300.008
300.008
300.009
300.009
300.009
300.01
300.01
300.01
300.01
300.011
300.011
300.011
300.012
300.012
300.012
300.013
300.013
300.013
300.013
300.014
300.014
300.014
300.014
300
300
300
300
300
300
300
300
300
300
300
300
300
300
300
300
300
300
300
300
300
300
300
300
300
300
300
300
300
300
300
300
300.001
300.001
300.001
300.001
300.001
300.001
300.001
300.001
300.001
300.002
300.002
300.002
300.002
300.002
300.002
300.003
300.003
300.003
300.003
300.003
300.003
300.004
300.004
300.004
300.004
300.004
300.005
300.005
300.005
300.005
300.005
300.006
300.006
300.006
300.006
300.006
300.006
300.007
300.007
300.007
300.007
300.007
300.008
300.008
300.008
300.008
300.008
300.008
300.009
300
300
300
300
300
300
300
300
300
300
300
300
300
300
300
300
300
300
300
300
300
300
300
300
300
300
300
300
300
300
300
300
300
300
300
300
300
300
300
300.001
300.001
300.001
300.001
300.001
300.001
300.001
300.001
300.001
300.001
300.001
300.002
300.002
300.002
300.002
300.002
300.002
300.002
300.002
300.002
300.002
300.003
300.003
300.003
300.003
300.003
300.003
300.003
300.003
300.003
300.004
300.004
300.004
300.004
300.004
300.004
300.004
300.004
300.004
300.004
300.005
300.005
300
300
300
300
300
300
300
300
300
300
300
300
300
300
300
300
300
300
300
300
300
300
300
300
300
300
300
300
300
300
300
300
300
300
300
300
300
300
300
300
300
300
300
300
300
300
300
300
300
300.001
300.001
300.001
300.001
300.001
300.001
300.001
300.001
300.001
300.001
300.001
300.001
300.001
300.001
300.001
300.001
300.002
300.002
300.002
300.002
300.002
300.002
300.002
300.002
300.002
300.002
300.002
300.002
300.002
300.002
300.002
300.002
300
300
300
300
300
300
300
300
300
300
300
300
300
300
300
300
300
300
300
300
300
300
300
300
300
300
300
300
300
300
300
300
300
300
300
300
300
300
300
300
300
300
300
300
300
300
300
300
300
300
300
300
300
300
300
300
300
300
300
300
300.001
300.001
300.001
300.001
300.001
300.001
300.001
300.001
300.001
300.001
300.001
300.001
300.001
300.001
300.001
300.001
300.001
300.001
300.001
300.001
300.001
301.918
302.032
302.129
302.213
302.288
302.355
302.415
302.469
302.517
302.559
302.594
302.62
302.633
302.653
302.676
302.7
302.725
302.749
302.772
302.795
302.817
302.836
302.853
302.871
302.89
302.909
302.928
302.946
302.965
302.982
302.999
303.014
303.029
303.043
303.059
303.073
303.088
303.103
303.117
303.13
303.143
303.155
303.167
303.179
303.191
303.203
303.214
303.225
303.235
303.244
303.254
303.263
303.273
303.282
303.291
303.299
303.308
303.316
303.323
303.331
303.338
303.345
303.352
303.358
303.365
303.371
303.377
303.383
303.388
303.394
303.399
303.404
303.409
303.414
303.418
303.422
303.426
303.43
303.434
303.437
303.44
303.444
303.447
303.449
303.452
303.455
303.457
303.46
303.463
303.465
303.467
303.469
303.471
303.472
303.474
303.475
303.477
303.478
303.48
303.481
303.482
303.483
303.484
303.485
303.486
303.486
303.487
303.488
303.488
303.488
303.489
303.489
303.489
303.489
303.49
303.49
303.49
303.489
303.489
303.489
303.489
303.488
303.488
303.487
303.486
303.485
303.484
303.483
303.482
303.48
303.479
303.477
303.474
303.472
303.469
303.466
303.463
303.46
303.455
303.45
303.444
303.438
303.43
303.422
303.413
303.402
303.39
303.377
303.362
303.342
303.317
303.29
303.261
303.231
303.192
303.146
303.103
303.036
302.973
302.808
302.54
301.853
301.955
302.045
302.126
302.2
302.266
302.325
302.379
302.427
302.469
302.505
302.535
302.558
302.581
302.605
302.63
302.655
302.68
302.703
302.726
302.748
302.768
302.787
302.806
302.826
302.845
302.864
302.882
302.9
302.918
302.935
302.951
302.966
302.981
302.996
303.011
303.026
303.04
303.054
303.068
303.081
303.094
303.106
303.118
303.13
303.141
303.153
303.163
303.174
303.183
303.193
303.203
303.212
303.221
303.23
303.239
303.247
303.255
303.263
303.27
303.278
303.285
303.292
303.298
303.304
303.31
303.316
303.322
303.328
303.333
303.338
303.344
303.348
303.353
303.357
303.362
303.366
303.369
303.373
303.376
303.38
303.383
303.386
303.389
303.392
303.394
303.397
303.399
303.402
303.404
303.406
303.408
303.41
303.411
303.413
303.415
303.416
303.417
303.419
303.42
303.421
303.422
303.423
303.424
303.425
303.425
303.426
303.426
303.427
303.427
303.428
303.428
303.428
303.428
303.428
303.428
303.428
303.428
303.428
303.428
303.427
303.427
303.426
303.426
303.425
303.424
303.423
303.422
303.421
303.419
303.418
303.416
303.413
303.411
303.408
303.406
303.402
303.399
303.395
303.389
303.384
303.377
303.37
303.362
303.353
303.342
303.33
303.316
303.301
303.281
303.256
303.23
303.2
303.169
303.13
303.084
303.037
302.968
302.892
302.728
302.463
301.795
301.884
301.967
302.043
302.113
302.178
302.236
302.289
302.337
302.38
302.417
302.449
302.478
302.504
302.53
302.556
302.582
302.607
302.631
302.654
302.676
302.698
302.718
302.737
302.757
302.776
302.795
302.814
302.832
302.85
302.867
302.884
302.899
302.915
302.93
302.945
302.96
302.974
302.989
303.002
303.015
303.028
303.041
303.053
303.065
303.076
303.088
303.098
303.109
303.119
303.129
303.138
303.148
303.157
303.166
303.174
303.183
303.191
303.199
303.206
303.214
303.221
303.227
303.234
303.24
303.246
303.252
303.258
303.264
303.269
303.274
303.279
303.284
303.289
303.293
303.297
303.301
303.305
303.309
303.312
303.316
303.319
303.322
303.325
303.327
303.33
303.332
303.335
303.337
303.339
303.341
303.343
303.345
303.347
303.349
303.35
303.351
303.353
303.354
303.355
303.356
303.357
303.358
303.359
303.36
303.361
303.361
303.362
303.362
303.363
303.363
303.363
303.363
303.364
303.364
303.364
303.364
303.364
303.363
303.363
303.363
303.362
303.362
303.361
303.36
303.36
303.359
303.358
303.356
303.355
303.353
303.351
303.349
303.346
303.344
303.341
303.338
303.334
303.33
303.325
303.32
303.313
303.306
303.298
303.289
303.278
303.266
303.252
303.237
303.217
303.193
303.166
303.137
303.105
303.065
303.018
302.968
302.897
302.811
302.646
302.387
301.739
301.817
301.892
301.963
302.029
302.091
302.148
302.2
302.247
302.29
302.328
302.363
302.394
302.423
302.451
302.478
302.505
302.53
302.555
302.578
302.601
302.623
302.644
302.665
302.685
302.704
302.724
302.742
302.761
302.779
302.796
302.813
302.829
302.845
302.86
302.875
302.89
302.905
302.919
302.933
302.946
302.959
302.972
302.984
302.996
303.008
303.019
303.03
303.04
303.05
303.06
303.07
303.079
303.089
303.098
303.106
303.115
303.123
303.131
303.138
303.146
303.153
303.159
303.166
303.172
303.179
303.184
303.19
303.196
303.201
303.206
303.211
303.216
303.221
303.225
303.229
303.233
303.237
303.241
303.244
303.247
303.251
303.254
303.256
303.259
303.262
303.264
303.267
303.269
303.271
303.273
303.275
303.277
303.279
303.28
303.282
303.283
303.284
303.286
303.287
303.288
303.289
303.29
303.291
303.291
303.292
303.293
303.293
303.294
303.294
303.294
303.295
303.295
303.295
303.295
303.295
303.295
303.295
303.295
303.295
303.294
303.294
303.293
303.293
303.292
303.291
303.29
303.289
303.288
303.286
303.285
303.283
303.281
303.278
303.276
303.273
303.27
303.266
303.262
303.257
303.252
303.245
303.238
303.23
303.221
303.211
303.198
303.185
303.169