/*--------------------------------*- C++ -*----------------------------------*\
| =========                 |                                                 |
| \\      /  F ield         | OpenFOAM: The Open Source CFD Toolbox           |
|  \\    /   O peration     | Version:  4.1                                   |
|   \\  /    A nd           | Web:      www.OpenFOAM.org                      |
|    \\/     M anipulation  |                                                 |
\*---------------------------------------------------------------------------*/
FoamFile
{
    version     2.0;
    format      ascii;
    class       volVectorField;
    location    "0.6";
    object      U;
}
// * * * * * * * * * * * * * * * * * * * * * * * * * * * * * * * * * * * * * //

dimensions      [0 1 -1 0 0 0 0];

internalField   nonuniform List<vector> 
12013
(
(0.1 5.49105e-07 0)
(0.099988 2.82732e-06 0)
(0.0999422 6.72114e-06 0)
(0.0998516 1.12091e-05 0)
(0.0997187 1.49948e-05 0)
(0.099558 1.72517e-05 0)
(0.0993874 1.7919e-05 0)
(0.0992206 1.74893e-05 0)
(0.0990645 1.66068e-05 0)
(0.0989201 1.57668e-05 0)
(0.098785 1.52172e-05 0)
(0.0986559 1.50021e-05 0)
(0.09853 1.50561e-05 0)
(0.0984053 1.52822e-05 0)
(0.098281 1.55953e-05 0)
(0.0981566 1.59378e-05 0)
(0.0980321 1.62782e-05 0)
(0.0979077 1.66007e-05 0)
(0.0977837 1.69019e-05 0)
(0.0976603 1.71809e-05 0)
(0.0975376 1.74392e-05 0)
(0.0974158 1.7678e-05 0)
(0.0972952 1.78972e-05 0)
(0.0971759 1.80958e-05 0)
(0.097058 1.8272e-05 0)
(0.0969418 1.84238e-05 0)
(0.0968273 1.85481e-05 0)
(0.0967149 1.86425e-05 0)
(0.0966046 1.87039e-05 0)
(0.0964966 1.87305e-05 0)
(0.0963912 1.87208e-05 0)
(0.0962886 1.86742e-05 0)
(0.0961888 1.85915e-05 0)
(0.0960921 1.84743e-05 0)
(0.0959986 1.83257e-05 0)
(0.0959084 1.81502e-05 0)
(0.0958215 1.79535e-05 0)
(0.0957379 1.77432e-05 0)
(0.0956577 1.75282e-05 0)
(0.0955808 1.73186e-05 0)
(0.095507 1.71262e-05 0)
(0.0954362 1.69641e-05 0)
(0.0953681 1.68477e-05 0)
(0.0953025 1.67935e-05 0)
(0.0952389 1.68196e-05 0)
(0.095177 1.69464e-05 0)
(0.0951162 1.71966e-05 0)
(0.095056 1.75949e-05 0)
(0.0949959 1.81695e-05 0)
(0.0949349 1.89521e-05 0)
(0.0948724 1.99788e-05 0)
(0.0948075 2.12907e-05 0)
(0.094739 2.29347e-05 0)
(0.094666 2.49668e-05 0)
(0.0945871 2.7452e-05 0)
(0.0945009 3.04673e-05 0)
(0.0944057 3.41053e-05 0)
(0.0942997 3.84774e-05 0)
(0.0941807 4.37191e-05 0)
(0.0940462 4.99967e-05 0)
(0.0938933 5.75159e-05 0)
(0.0937186 6.65337e-05 0)
(0.0935179 7.73741e-05 0)
(0.0932865 9.045e-05 0)
(0.0930183 0.000106294 0)
(0.0927061 0.000125601 0)
(0.0923411 0.000149292 0)
(0.0919118 0.000178604 0)
(0.0914039 0.000215229 0)
(0.0907991 0.000261522 0)
(0.0900729 0.000320827 0)
(0.0891928 0.000397994 0)
(0.0881147 0.00050021 0)
(0.0867767 0.000638376 0)
(0.0850913 0.000829421 0)
(0.0829317 0.00110025 0)
(0.0801099 0.00149464 0)
(0.0763288 0.00208753 0)
(0.0711255 0.00302999 0)
(0.0639532 0.00474415 0)
(0.0558826 0.00913062 0)
(0.100001 1.64456e-06 0)
(0.0999888 8.61285e-06 0)
(0.099944 2.05419e-05 0)
(0.0998545 3.43091e-05 0)
(0.0997228 4.59368e-05 0)
(0.0995632 5.28858e-05 0)
(0.0993932 5.49598e-05 0)
(0.0992267 5.36649e-05 0)
(0.0990708 5.09736e-05 0)
(0.0989264 4.84047e-05 0)
(0.0987912 4.67205e-05 0)
(0.098662 4.6059e-05 0)
(0.0985361 4.62212e-05 0)
(0.0984114 4.69098e-05 0)
(0.0982871 4.78657e-05 0)
(0.0981628 4.89134e-05 0)
(0.0980384 4.99543e-05 0)
(0.0979142 5.09424e-05 0)
(0.0977903 5.18649e-05 0)
(0.097667 5.27205e-05 0)
(0.0975445 5.35134e-05 0)
(0.0974229 5.42467e-05 0)
(0.0973025 5.49205e-05 0)
(0.0971833 5.55312e-05 0)
(0.0970655 5.60744e-05 0)
(0.0969494 5.65429e-05 0)
(0.096835 5.6928e-05 0)
(0.0967225 5.72215e-05 0)
(0.0966122 5.74147e-05 0)
(0.0965043 5.75015e-05 0)
(0.0963988 5.74786e-05 0)
(0.096296 5.73439e-05 0)
(0.0961961 5.70988e-05 0)
(0.0960992 5.67483e-05 0)
(0.0960054 5.63026e-05 0)
(0.0959148 5.57757e-05 0)
(0.0958275 5.51853e-05 0)
(0.0957435 5.45537e-05 0)
(0.0956627 5.39083e-05 0)
(0.0955852 5.32806e-05 0)
(0.0955107 5.2707e-05 0)
(0.0954391 5.22275e-05 0)
(0.0953702 5.18886e-05 0)
(0.0953036 5.17415e-05 0)
(0.095239 5.18419e-05 0)
(0.095176 5.22516e-05 0)
(0.095114 5.30398e-05 0)
(0.0950526 5.42829e-05 0)
(0.0949911 5.60677e-05 0)
(0.0949288 5.84906e-05 0)
(0.0948649 6.16607e-05 0)
(0.0947985 6.57041e-05 0)
(0.0947286 7.07657e-05 0)
(0.0946541 7.70145e-05 0)
(0.0945737 8.46483e-05 0)
(0.094486 9.39028e-05 0)
(0.0943894 0.000105059 0)
(0.094282 0.000118456 0)
(0.0941619 0.000134503 0)
(0.0940264 0.000153705 0)
(0.0938729 0.000176684 0)
(0.093698 0.000204215 0)
(0.0934977 0.000237272 0)
(0.0932675 0.000277098 0)
(0.0930017 0.000325283 0)
(0.0926935 0.0003839 0)
(0.0923346 0.00045568 0)
(0.0919145 0.000544272 0)
(0.0914204 0.000654633 0)
(0.0908357 0.000793604 0)
(0.0901392 0.000970797 0)
(0.0893035 0.00119996 0)
(0.0882923 0.00150113 0)
(0.0870574 0.00190399 0)
(0.0855348 0.00245324 0)
(0.0836394 0.00321684 0)
(0.0812608 0.00429783 0)
(0.078254 0.0058504 0)
(0.0744581 0.0081005 0)
(0.0699277 0.0113095 0)
(0.0659692 0.0153348 0)
(0.100001 2.69128e-06 0)
(0.0999899 1.45743e-05 0)
(0.0999469 3.49822e-05 0)
(0.0998599 5.86073e-05 0)
(0.0997311 7.86328e-05 0)
(0.0995739 9.06802e-05 0)
(0.0994058 9.43741e-05 0)
(0.0992404 9.22666e-05 0)
(0.0990848 8.77243e-05 0)
(0.0989403 8.3354e-05 0)
(0.0988049 8.04708e-05 0)
(0.0986755 7.93248e-05 0)
(0.0985493 7.95833e-05 0)
(0.0984247 8.07439e-05 0)
(0.0983005 8.23662e-05 0)
(0.0981763 8.41502e-05 0)
(0.0980523 8.59262e-05 0)
(0.0979284 8.76171e-05 0)
(0.0978049 8.91975e-05 0)
(0.097682 9.06666e-05 0)
(0.0975599 9.20302e-05 0)
(0.0974387 9.32935e-05 0)
(0.0973186 9.44564e-05 0)
(0.0971998 9.55136e-05 0)
(0.0970823 9.64568e-05 0)
(0.0969665 9.72735e-05 0)
(0.0968524 9.79497e-05 0)
(0.0967401 9.84705e-05 0)
(0.09663 9.88225e-05 0)
(0.0965221 9.89952e-05 0)
(0.0964167 9.89823e-05 0)
(0.0963138 9.87808e-05 0)
(0.0962137 9.83937e-05 0)
(0.0961165 9.78298e-05 0)
(0.0960223 9.71064e-05 0)
(0.0959312 9.62471e-05 0)
(0.0958433 9.52832e-05 0)
(0.0957585 9.42529e-05 0)
(0.0956768 9.32028e-05 0)
(0.0955982 9.21874e-05 0)
(0.0955225 9.12686e-05 0)
(0.0954495 9.05161e-05 0)
(0.0953791 9.00083e-05 0)
(0.0953108 8.98331e-05 0)
(0.0952444 9.00862e-05 0)
(0.0951794 9.08734e-05 0)
(0.0951153 9.23128e-05 0)
(0.0950516 9.45361e-05 0)
(0.0949877 9.76902e-05 0)
(0.0949229 0.00010194 0)
(0.0948563 0.000107471 0)
(0.0947872 0.000114498 0)
(0.0947145 0.000123269 0)
(0.0946371 0.000134068 0)
(0.0945539 0.000147231 0)
(0.0944634 0.000163158 0)
(0.094364 0.000182321 0)
(0.0942542 0.00020529 0)
(0.0941317 0.000232754 0)
(0.0939944 0.000265556 0)
(0.0938395 0.000304732 0)
(0.093664 0.000351569 0)
(0.0934642 0.000407678 0)
(0.093236 0.000475093 0)
(0.0929741 0.000556414 0)
(0.0926726 0.000654992 0)
(0.0923241 0.000775204 0)
(0.0919199 0.000922832 0)
(0.0914491 0.00110562 0)
(0.0908987 0.00133406 0)
(0.0902522 0.00162259 0)
(0.08949 0.00199133 0)
(0.0885878 0.00246856 0)
(0.0875169 0.00309438 0)
(0.0862443 0.00392566 0)
(0.0847367 0.005042 0)
(0.0829681 0.0065505 0)
(0.080937 0.00858297 0)
(0.0787095 0.0112707 0)
(0.0765503 0.0146223 0)
(0.0751651 0.0180332 0)
(0.100001 3.64542e-06 0)
(0.0999912 2.0576e-05 0)
(0.099951 4.97959e-05 0)
(0.099868 8.37864e-05 0)
(0.0997438 0.000112775 0)
(0.0995909 0.000130416 0)
(0.0994259 0.000136076 0)
(0.0992623 0.000133338 0)
(0.0991073 0.000127 0)
(0.0989628 0.000120808 0)
(0.098827 0.000116676 0)
(0.0986972 0.000114997 0)
(0.0985708 0.000115318 0)
(0.0984461 0.000116935 0)
(0.0983221 0.000119225 0)
(0.0981983 0.000121759 0)
(0.0980748 0.000124293 0)
(0.0979515 0.000126715 0)
(0.0978287 0.000128985 0)
(0.0977065 0.000131102 0)
(0.097585 0.000133072 0)
(0.0974646 0.000134902 0)
(0.0973452 0.000136591 0)
(0.097227 0.000138132 0)
(0.0971103 0.000139513 0)
(0.096995 0.000140716 0)
(0.0968814 0.000141721 0)
(0.0967697 0.000142508 0)
(0.09666 0.000143058 0)
(0.0965524 0.000143356 0)
(0.0964471 0.000143393 0)
(0.0963444 0.000143166 0)
(0.0962442 0.000142679 0)
(0.0961468 0.000141947 0)
(0.0960523 0.000140993 0)
(0.0959607 0.000139852 0)
(0.095872 0.000138568 0)
(0.0957863 0.000137199 0)
(0.0957036 0.000135811 0)
(0.0956237 0.000134481 0)
(0.0955464 0.000133299 0)
(0.0954717 0.000132366 0)
(0.0953993 0.000131794 0)
(0.0953288 0.000131709 0)
(0.09526 0.000132249 0)
(0.0951923 0.000133566 0)
(0.0951254 0.000135828 0)
(0.0950587 0.000139225 0)
(0.0949916 0.000143966 0)
(0.0949234 0.000150286 0)
(0.0948533 0.000158452 0)
(0.0947806 0.000168769 0)
(0.0947042 0.000181586 0)
(0.0946231 0.000197308 0)
(0.0945361 0.00021641 0)
(0.094442 0.000239454 0)
(0.0943392 0.000267103 0)
(0.0942262 0.000300155 0)
(0.094101 0.000339569 0)
(0.0939616 0.000386514 0)
(0.0938055 0.000442419 0)
(0.09363 0.000509046 0)
(0.0934319 0.000588586 0)
(0.0932074 0.000683785 0)
(0.0929523 0.000798113 0)
(0.0926616 0.000935995 0)
(0.0923294 0.00110312 0)
(0.091949 0.0013069 0)
(0.0915126 0.00155704 0)
(0.0910111 0.00186637 0)
(0.0904344 0.00225204 0)
(0.0897717 0.00273703 0)
(0.0890119 0.00335218 0)
(0.0881456 0.00413864 0)
(0.0871687 0.00515032 0)
(0.0860883 0.00645478 0)
(0.0849345 0.00812891 0)
(0.0837766 0.0102408 0)
(0.0827472 0.0128026 0)
(0.0820684 0.0156551 0)
(0.0820155 0.018215 0)
(0.100001 4.46537e-06 0)
(0.0999929 2.64426e-05 0)
(0.0999562 6.46555e-05 0)
(0.0998789 0.000109414 0)
(0.0997612 0.000147929 0)
(0.0996143 0.000171761 0)
(0.0994539 0.000179895 0)
(0.0992929 0.000176876 0)
(0.099139 0.000168923 0)
(0.0989944 0.000160958 0)
(0.0988582 0.00015555 0)
(0.0987279 0.000153276 0)
(0.0986012 0.000153598 0)
(0.0984765 0.000155625 0)
(0.0983528 0.000158554 0)
(0.0982296 0.000161828 0)
(0.0981068 0.000165125 0)
(0.0979844 0.000168292 0)
(0.0978626 0.000171275 0)
(0.0977414 0.000174067 0)
(0.0976211 0.000176674 0)
(0.0975017 0.000179104 0)
(0.0973834 0.000181356 0)
(0.0972663 0.000183419 0)
(0.0971506 0.000185277 0)
(0.0970363 0.000186907 0)
(0.0969237 0.000188285 0)
(0.0968128 0.000189383 0)
(0.0967038 0.000190179 0)
(0.0965968 0.000190654 0)
(0.0964921 0.000190796 0)
(0.0963897 0.000190602 0)
(0.0962898 0.000190079 0)
(0.0961924 0.000189247 0)
(0.0960977 0.000188138 0)
(0.0960057 0.000186796 0)
(0.0959164 0.000185283 0)
(0.0958298 0.000183672 0)
(0.0957459 0.000182053 0)
(0.0956646 0.000180526 0)
(0.0955857 0.000179211 0)
(0.0955091 0.000178239 0)
(0.0954344 0.00017776 0)
(0.0953614 0.000177937 0)
(0.0952899 0.000178953 0)
(0.0952192 0.000181006 0)
(0.0951491 0.000184318 0)
(0.0950789 0.000189137 0)
(0.0950081 0.000195735 0)
(0.094936 0.000204421 0)
(0.0948619 0.00021554 0)
(0.094785 0.000229488 0)
(0.0947044 0.000246717 0)
(0.0946191 0.00026775 0)
(0.094528 0.000293198 0)
(0.09443 0.000323777 0)
(0.0943237 0.000360333 0)
(0.0942075 0.000403877 0)
(0.0940799 0.000455619 0)
(0.093939 0.000517018 0)
(0.0937827 0.000589851 0)
(0.0936086 0.000676287 0)
(0.0934141 0.000778999 0)
(0.0931962 0.000901294 0)
(0.0929517 0.0010473 0)
(0.0926768 0.00122219 0)
(0.0923675 0.00143251 0)
(0.0920195 0.00168657 0)
(0.091628 0.00199498 0)
(0.0911887 0.00237136 0)
(0.0906976 0.00283316 0)
(0.0901523 0.00340273 0)
(0.0895532 0.00410835 0)
(0.0889063 0.00498509 0)
(0.0882267 0.00607453 0)
(0.0875446 0.00742193 0)
(0.0869123 0.00906721 0)
(0.0864124 0.0110243 0)
(0.0861607 0.0132409 0)
(0.0862902 0.0155302 0)
(0.0868786 0.0174855 0)
(0.100001 5.09653e-06 0)
(0.0999948 3.19694e-05 0)
(0.0999626 7.91753e-05 0)
(0.0998922 0.000134968 0)
(0.0997828 0.000183555 0)
(0.0996438 0.000214283 0)
(0.0994893 0.000225585 0)
(0.0993319 0.000222825 0)
(0.0991795 0.000213588 0)
(0.0990352 0.000203988 0)
(0.0988985 0.000197306 0)
(0.0987677 0.000194368 0)
(0.0986408 0.000194599 0)
(0.0985162 0.000196951 0)
(0.098393 0.000200457 0)
(0.0982706 0.000204431 0)
(0.0981488 0.000208471 0)
(0.0980277 0.000212382 0)
(0.0979072 0.000216088 0)
(0.0977874 0.000219573 0)
(0.0976686 0.000222843 0)
(0.0975507 0.000225902 0)
(0.0974339 0.000228748 0)
(0.0973183 0.000231369 0)
(0.097204 0.000233743 0)
(0.0970911 0.000235844 0)
(0.0969798 0.000237641 0)
(0.0968702 0.000239103 0)
(0.0967624 0.000240202 0)
(0.0966565 0.000240916 0)
(0.0965526 0.000241232 0)
(0.0964509 0.000241149 0)
(0.0963515 0.000240674 0)
(0.0962545 0.000239836 0)
(0.0961598 0.000238673 0)
(0.0960677 0.000237245 0)
(0.0959779 0.000235627 0)
(0.0958906 0.000233911 0)
(0.0958057 0.000232208 0)
(0.0957231 0.000230647 0)
(0.0956425 0.000229374 0)
(0.0955639 0.000228555 0)
(0.095487 0.000228375 0)
(0.0954115 0.000229038 0)
(0.095337 0.000230769 0)
(0.0952632 0.000233817 0)
(0.0951896 0.000238456 0)
(0.0951157 0.00024499 0)
(0.095041 0.000253758 0)
(0.0949649 0.000265136 0)
(0.0948866 0.000279553 0)
(0.0948054 0.000297488 0)
(0.0947206 0.000319493 0)
(0.0946311 0.000346204 0)
(0.0945361 0.000378355 0)
(0.0944344 0.000416806 0)
(0.0943249 0.000462566 0)
(0.0942063 0.000516831 0)
(0.0940772 0.000581023 0)
(0.093936 0.000656843 0)
(0.093781 0.000746338 0)
(0.0936105 0.000851983 0)
(0.0934225 0.000976785 0)
(0.0932148 0.00112441 0)
(0.0929852 0.00129936 0)
(0.0927316 0.00150716 0)
(0.0924517 0.00175464 0)
(0.0921436 0.00205021 0)
(0.0918059 0.00240431 0)
(0.0914384 0.00282977 0)
(0.0910423 0.00334231 0)
(0.0906219 0.00396094 0)
(0.0901857 0.00470808 0)
(0.0897488 0.00560909 0)
(0.0893357 0.00669047 0)
(0.0889835 0.00797549 0)
(0.088745 0.00947534 0)
(0.0886889 0.0111734 0)
(0.0888933 0.0130007 0)
(0.0894237 0.014806 0)
(0.0902821 0.0163379 0)
(0.100002 5.47895e-06 0)
(0.0999969 3.69403e-05 0)
(0.0999697 9.29391e-05 0)
(0.0999075 0.000159876 0)
(0.0998079 0.000219041 0)
(0.0996783 0.00025747 0)
(0.0995312 0.000272819 0)
(0.0993784 0.000271064 0)
(0.0992282 0.00026104 0)
(0.0990844 0.000250046 0)
(0.0989475 0.000242133 0)
(0.0988163 0.00023846 0)
(0.0986892 0.000238481 0)
(0.0985649 0.000241038 0)
(0.0984424 0.000245021 0)
(0.0983211 0.000249625 0)
(0.0982007 0.000254365 0)
(0.0980811 0.000258997 0)
(0.0979623 0.000263419 0)
(0.0978444 0.000267604 0)
(0.0977274 0.000271551 0)
(0.0976115 0.000275262 0)
(0.0974966 0.000278731 0)
(0.0973829 0.000281943 0)
(0.0972705 0.000284872 0)
(0.0971595 0.000287487 0)
(0.09705 0.000289753 0)
(0.096942 0.000291635 0)
(0.0968358 0.000293101 0)
(0.0967313 0.000294127 0)
(0.0966288 0.0002947 0)
(0.0965282 0.000294819 0)
(0.0964297 0.000294499 0)
(0.0963333 0.000293771 0)
(0.096239 0.000292687 0)
(0.096147 0.000291316 0)
(0.0960571 0.000289752 0)
(0.0959693 0.000288104 0)
(0.0958836 0.000286508 0)
(0.0957998 0.000285118 0)
(0.0957177 0.000284109 0)
(0.0956373 0.000283681 0)
(0.0955582 0.000284053 0)
(0.0954802 0.000285471 0)
(0.0954029 0.000288203 0)
(0.0953259 0.000292545 0)
(0.095249 0.000298824 0)
(0.0951715 0.0003074 0)
(0.095093 0.000318673 0)
(0.0950129 0.000333089 0)
(0.0949305 0.000351147 0)
(0.0948453 0.00037341 0)
(0.0947565 0.00040052 0)
(0.0946633 0.00043321 0)
(0.0945648 0.000472324 0)
(0.0944602 0.000518843 0)
(0.0943485 0.00057391 0)
(0.0942285 0.000638864 0)
(0.0940993 0.000715286 0)
(0.0939597 0.000805043 0)
(0.0938083 0.000910357 0)
(0.0936441 0.00103387 0)
(0.0934657 0.00117876 0)
(0.0932719 0.00134879 0)
(0.0930618 0.00154853 0)
(0.0928345 0.00178341 0)
(0.0925895 0.00205998 0)
(0.0923273 0.00238602 0)
(0.0920492 0.00277082 0)
(0.0917581 0.00322525 0)
(0.0914592 0.00376194 0)
(0.0911609 0.00439507 0)
(0.0908759 0.00513998 0)
(0.0906228 0.006012 0)
(0.0904275 0.00702419 0)
(0.0903244 0.00818337 0)
(0.090356 0.00948361 0)
(0.0905706 0.0108968 0)
(0.0910135 0.0123607 0)
(0.091711 0.0137695 0)
(0.0926432 0.0149759 0)
(0.100002 5.55774e-06 0)
(0.099999 4.11525e-05 0)
(0.0999773 0.000105544 0)
(0.099924 0.000183563 0)
(0.0998353 0.000253753 0)
(0.0997163 0.000300755 0)
(0.0995777 0.000321198 0)
(0.0994306 0.000321391 0)
(0.0992835 0.000311248 0)
(0.0991407 0.000299217 0)
(0.0990039 0.000290173 0)
(0.0988726 0.000285703 0)
(0.0987456 0.000285377 0)
(0.0986219 0.000287988 0)
(0.0985003 0.000292314 0)
(0.0983803 0.000297445 0)
(0.0982616 0.000302814 0)
(0.098144 0.000308123 0)
(0.0980273 0.00031324 0)
(0.0979116 0.000318119 0)
(0.0977969 0.000322749 0)
(0.0976832 0.000327126 0)
(0.0975707 0.00033124 0)
(0.0974594 0.00033507 0)
(0.0973493 0.00033859 0)
(0.0972405 0.000341762 0)
(0.0971332 0.000344548 0)
(0.0970273 0.000346911 0)
(0.0969231 0.000348815 0)
(0.0968205 0.000350236 0)
(0.0967196 0.000351162 0)
(0.0966205 0.000351595 0)
(0.0965232 0.000351553 0)
(0.0964278 0.000351077 0)
(0.0963343 0.000350228 0)
(0.0962427 0.00034909 0)
(0.0961529 0.000347771 0)
(0.0960649 0.000346403 0)
(0.0959786 0.000345141 0)
(0.0958939 0.000344167 0)
(0.0958106 0.000343684 0)
(0.0957285 0.000343924 0)
(0.0956475 0.000345144 0)
(0.0955671 0.000347624 0)
(0.0954872 0.000351677 0)
(0.0954074 0.000357644 0)
(0.0953273 0.0003659 0)
(0.0952465 0.00037686 0)
(0.0951644 0.000390979 0)
(0.0950807 0.000408765 0)
(0.0949948 0.000430781 0)
(0.0949061 0.000457664 0)
(0.094814 0.000490128 0)
(0.0947177 0.000528988 0)
(0.0946168 0.000575175 0)
(0.0945103 0.000629758 0)
(0.0943976 0.000693972 0)
(0.094278 0.000769249 0)
(0.0941505 0.000857257 0)
(0.0940146 0.000959942 0)
(0.0938694 0.00107958 0)
(0.0937143 0.00121884 0)
(0.0935488 0.00138084 0)
(0.0933727 0.00156925 0)
(0.0931859 0.00178833 0)
(0.0929889 0.00204305 0)
(0.092783 0.00233918 0)
(0.09257 0.00268331 0)
(0.0923535 0.0030829 0)
(0.0921384 0.00354624 0)
(0.0919321 0.00408225 0)
(0.0917447 0.00470007 0)
(0.0915899 0.00540838 0)
(0.0914859 0.00621414 0)
(0.0914551 0.00712066 0)
(0.0915247 0.00812478 0)
(0.0917249 0.00921295 0)
(0.0920856 0.0103565 0)
(0.0926302 0.0115075 0)
(0.0933659 0.0125968 0)
(0.0942712 0.0135402 0)
(0.100002 5.29192e-06 0)
(0.100001 4.44434e-05 0)
(0.0999848 0.000116651 0)
(0.0999405 0.000205519 0)
(0.0998632 0.000287091 0)
(0.0997557 0.000343569 0)
(0.0996266 0.000370273 0)
(0.0994862 0.000373524 0)
(0.0993429 0.000364089 0)
(0.0992021 0.000351494 0)
(0.099066 0.00034149 0)
(0.098935 0.000336187 0)
(0.0988086 0.000335374 0)
(0.0986857 0.000337866 0)
(0.0985654 0.000342377 0)
(0.0984471 0.000347905 0)
(0.0983304 0.000353809 0)
(0.0982149 0.000359732 0)
(0.0981007 0.000365505 0)
(0.0979875 0.000371058 0)
(0.0978754 0.000376366 0)
(0.0977645 0.000381415 0)
(0.0976547 0.00038619 0)
(0.097546 0.000390665 0)
(0.0974386 0.000394809 0)
(0.0973325 0.000398582 0)
(0.0972277 0.000401942 0)
(0.0971243 0.00040485 0)
(0.0970223 0.000407271 0)
(0.0969219 0.00040918 0)
(0.096823 0.000410567 0)
(0.0967257 0.000411439 0)
(0.09663 0.00041182 0)
(0.0965359 0.000411759 0)
(0.0964434 0.000411328 0)
(0.0963525 0.000410626 0)
(0.0962631 0.000409776 0)
(0.0961752 0.00040893 0)
(0.0960886 0.000408264 0)
(0.0960033 0.000407985 0)
(0.095919 0.000408325 0)
(0.0958355 0.000409546 0)
(0.0957528 0.000411936 0)
(0.0956704 0.000415814 0)
(0.0955882 0.00042153 0)
(0.0955059 0.000429467 0)
(0.095423 0.000440044 0)
(0.0953393 0.000453722 0)
(0.0952543 0.000471007 0)
(0.0951676 0.000492456 0)
(0.0950787 0.000518688 0)
(0.0949872 0.000550393 0)
(0.0948927 0.000588343 0)
(0.0947945 0.000633409 0)
(0.0946922 0.000686574 0)
(0.0945854 0.00074896 0)
(0.0944733 0.000821842 0)
(0.0943558 0.000906683 0)
(0.0942322 0.00100516 0)
(0.0941022 0.00111919 0)
(0.0939658 0.00125099 0)
(0.0938227 0.00140309 0)
(0.0936731 0.00157839 0)
(0.0935177 0.00178017 0)
(0.0933572 0.00201218 0)
(0.0931933 0.0022786 0)
(0.0930281 0.00258407 0)
(0.092865 0.00293365 0)
(0.0927084 0.00333273 0)
(0.0925644 0.00378682 0)
(0.0924409 0.00430129 0)
(0.0923479 0.00488085 0)
(0.0922981 0.00552891 0)
(0.0923065 0.00624651 0)
(0.0923908 0.00703106 0)
(0.09257 0.00787461 0)
(0.0928634 0.00876198 0)
(0.093288 0.00966889 0)
(0.093854 0.010561 0)
(0.0945606 0.0113949 0)
(0.0953904 0.0121226 0)
(0.100002 4.66307e-06 0)
(0.100003 4.6716e-05 0)
(0.0999917 0.000126032 0)
(0.0999562 0.000225367 0)
(0.0998901 0.000318566 0)
(0.0997943 0.000385389 0)
(0.0996754 0.000419576 0)
(0.0995425 0.000427101 0)
(0.099404 0.000419328 0)
(0.0992659 0.000406756 0)
(0.0991314 0.000396042 0)
(0.0990015 0.000389917 0)
(0.0988761 0.000388494 0)
(0.0987544 0.000390694 0)
(0.0986358 0.000395217 0)
(0.0985195 0.000400998 0)
(0.0984051 0.000407324 0)
(0.0982922 0.000413782 0)
(0.0981806 0.000420158 0)
(0.0980703 0.000426355 0)
(0.0979612 0.000432328 0)
(0.0978532 0.00043805 0)
(0.0977463 0.000443498 0)
(0.0976406 0.00044864 0)
(0.0975362 0.000453441 0)
(0.0974329 0.000457859 0)
(0.0973309 0.000461851 0)
(0.0972303 0.000465376 0)
(0.0971309 0.0004684 0)
(0.0970329 0.000470901 0)
(0.0969362 0.000472872 0)
(0.096841 0.000474324 0)
(0.0967471 0.00047529 0)
(0.0966545 0.000475829 0)
(0.0965633 0.000476024 0)
(0.0964733 0.000475985 0)
(0.0963846 0.000475854 0)
(0.0962969 0.000475799 0)
(0.0962103 0.00047602 0)
(0.0961245 0.000476743 0)
(0.0960395 0.000478228 0)
(0.095955 0.000480763 0)
(0.0958709 0.000484667 0)
(0.0957869 0.00049029 0)
(0.0957029 0.000498016 0)
(0.0956184 0.000508264 0)
(0.0955333 0.000521489 0)
(0.0954472 0.00053819 0)
(0.0953599 0.000558911 0)
(0.0952709 0.000584248 0)
(0.09518 0.000614857 0)
(0.0950867 0.000651464 0)
(0.0949909 0.000694871 0)
(0.094892 0.000745976 0)
(0.0947898 0.00080578 0)
(0.094684 0.000875407 0)
(0.0945745 0.000956121 0)
(0.0944609 0.00104934 0)
(0.0943432 0.00115668 0)
(0.0942216 0.00127992 0)
(0.0940962 0.0014211 0)
(0.0939676 0.00158247 0)
(0.0938363 0.00176653 0)
(0.0937037 0.00197606 0)
(0.0935713 0.00221405 0)
(0.0934413 0.00248372 0)
(0.0933167 0.00278845 0)
(0.0932012 0.00313167 0)
(0.0930998 0.00351673 0)
(0.0930185 0.00394664 0)
(0.0929647 0.00442381 0)
(0.0929474 0.00494959 0)
(0.0929767 0.00552375 0)
(0.0930643 0.00614381 0)
(0.0932224 0.00680431 0)
(0.0934633 0.00749596 0)
(0.0937984 0.00820492 0)
(0.0942361 0.00891242 0)
(0.0947797 0.00959493 0)
(0.0954255 0.0102255 0)
(0.0961607 0.0107767 0)
(0.100002 3.67923e-06 0)
(0.100005 4.79541e-05 0)
(0.0999976 0.000133599 0)
(0.0999701 0.000242906 0)
(0.0999145 0.000347852 0)
(0.09983 0.000425796 0)
(0.0997214 0.000468655 0)
(0.0995967 0.000481708 0)
(0.0994641 0.000476629 0)
(0.0993298 0.00046476 0)
(0.0991977 0.00045367 0)
(0.0990697 0.000446798 0)
(0.0989459 0.000444682 0)
(0.0988261 0.000446438 0)
(0.0987095 0.000450806 0)
(0.0985956 0.00045669 0)
(0.0984837 0.00046332 0)
(0.0983736 0.000470224 0)
(0.098265 0.000477144 0)
(0.0981578 0.000483947 0)
(0.0980517 0.000490566 0)
(0.0979469 0.000496958 0)
(0.0978432 0.000503089 0)
(0.0977407 0.000508922 0)
(0.0976394 0.000514418 0)
(0.0975392 0.000519531 0)
(0.0974402 0.000524218 0)
(0.0973423 0.000528439 0)
(0.0972457 0.000532164 0)
(0.0971502 0.000535372 0)
(0.097056 0.000538063 0)
(0.0969629 0.000540254 0)
(0.0968709 0.000541987 0)
(0.09678 0.000543329 0)
(0.0966902 0.000544375 0)
(0.0966013 0.00054525 0)
(0.0965134 0.000546109 0)
(0.0964262 0.000547137 0)
(0.0963397 0.000548552 0)
(0.0962538 0.000550602 0)
(0.0961684 0.000553567 0)
(0.0960832 0.00055776 0)
(0.095998 0.000563524 0)
(0.0959128 0.000571235 0)
(0.0958273 0.000581304 0)
(0.0957413 0.000594177 0)
(0.0956546 0.000610337 0)
(0.0955668 0.000630308 0)
(0.0954779 0.000654659 0)
(0.0953876 0.000684008 0)
(0.0952955 0.000719027 0)
(0.0952016 0.000760454 0)
(0.0951056 0.000809096 0)
(0.0950074 0.000865839 0)
(0.0949068 0.000931664 0)
(0.0948038 0.00100765 0)
(0.0946984 0.00109498 0)
(0.0945907 0.00119499 0)
(0.094481 0.00130911 0)
(0.0943696 0.00143893 0)
(0.0942573 0.0015862 0)
(0.0941448 0.00175278 0)
(0.0940334 0.00194069 0)
(0.0939247 0.00215204 0)
(0.0938205 0.00238902 0)
(0.0937237 0.00265384 0)
(0.0936372 0.00294862 0)
(0.0935649 0.00327529 0)
(0.0935116 0.00363545 0)
(0.0934827 0.00403012 0)
(0.0934846 0.00445952 0)
(0.0935242 0.00492277 0)
(0.0936092 0.00541752 0)
(0.0937479 0.00593964 0)
(0.093948 0.00648279 0)
(0.0942169 0.00703821 0)
(0.0945605 0.00759456 0)
(0.0949822 0.00813801 0)
(0.0954819 0.00865278 0)
(0.0960555 0.00912218 0)
(0.0966934 0.00953017 0)
(0.100002 2.37256e-06 0)
(0.100006 4.82213e-05 0)
(0.100002 0.000139415 0)
(0.0999815 0.000258128 0)
(0.0999353 0.00037481 0)
(0.0998614 0.000464507 0)
(0.099763 0.000517119 0)
(0.0996468 0.000536907 0)
(0.0995208 0.000535572 0)
(0.0993913 0.000525151 0)
(0.0992628 0.000514103 0)
(0.0991375 0.000506635 0)
(0.0990161 0.000503807 0)
(0.0988986 0.000505007 0)
(0.0987845 0.000509079 0)
(0.0986732 0.00051493 0)
(0.0985642 0.000521747 0)
(0.0984571 0.000529008 0)
(0.0983517 0.000536409 0)
(0.0982476 0.00054378 0)
(0.0981449 0.000551026 0)
(0.0980433 0.000558087 0)
(0.0979429 0.000564915 0)
(0.0978437 0.000571468 0)
(0.0977455 0.0005777 0)
(0.0976485 0.000583566 0)
(0.0975525 0.000589023 0)
(0.0974576 0.000594032 0)
(0.0973637 0.000598567 0)
(0.0972708 0.000602614 0)
(0.097179 0.000606177 0)
(0.0970881 0.000609282 0)
(0.0969981 0.000611979 0)
(0.0969089 0.000614345 0)
(0.0968206 0.000616486 0)
(0.0967329 0.000618539 0)
(0.0966458 0.000620673 0)
(0.0965593 0.000623086 0)
(0.0964732 0.000626014 0)
(0.0963874 0.000629719 0)
(0.0963017 0.0006345 0)
(0.0962161 0.000640687 0)
(0.0961303 0.000648641 0)
(0.0960443 0.000658759 0)
(0.0959579 0.000671468 0)
(0.0958709 0.000687231 0)
(0.0957832 0.000706547 0)
(0.0956946 0.00072995 0)
(0.0956049 0.000758018 0)
(0.0955141 0.000791371 0)
(0.095422 0.000830676 0)
(0.0953286 0.000876655 0)
(0.0952338 0.000930088 0)
(0.0951376 0.000991816 0)
(0.0950401 0.00106275 0)
(0.0949414 0.00114389 0)
(0.0948418 0.00123629 0)
(0.0947417 0.0013411 0)
(0.0946415 0.00145955 0)
(0.094542 0.00159296 0)
(0.094444 0.00174271 0)
(0.0943488 0.00191021 0)
(0.0942577 0.00209693 0)
(0.0941726 0.00230432 0)
(0.0940957 0.00253375 0)
(0.0940296 0.00278648 0)
(0.0939772 0.00306354 0)
(0.0939423 0.00336562 0)
(0.0939288 0.00369296 0)
(0.0939413 0.00404518 0)
(0.0939848 0.0044211 0)
(0.0940643 0.00481858 0)
(0.0941854 0.00523432 0)
(0.0943531 0.00566372 0)
(0.0945723 0.00610078 0)
(0.0948467 0.00653805 0)
(0.0951789 0.00696675 0)
(0.0955696 0.00737701 0)
(0.0960173 0.00775835 0)
(0.096518 0.00810032 0)
(0.0970648 0.00839337 0)
(0.100002 7.92508e-07 0)
(0.100006 4.76444e-05 0)
(0.100006 0.000143662 0)
(0.0999903 0.000271197 0)
(0.0999521 0.000399489 0)
(0.0998877 0.000501392 0)
(0.0997988 0.000564663 0)
(0.0996914 0.000592276 0)
(0.0995726 0.000595698 0)
(0.0994488 0.000587497 0)
(0.0993247 0.000576976 0)
(0.099203 0.000569148 0)
(0.0990848 0.000565661 0)
(0.0989702 0.000566254 0)
(0.098859 0.00056993 0)
(0.0987507 0.000575638 0)
(0.0986448 0.000582544 0)
(0.0985409 0.000590086 0)
(0.0984387 0.000597912 0)
(0.098338 0.000605817 0)
(0.0982386 0.000613676 0)
(0.0981403 0.00062141 0)
(0.0980433 0.000628958 0)
(0.0979473 0.000636268 0)
(0.0978523 0.000643291 0)
(0.0977584 0.000649981 0)
(0.0976654 0.000656294 0)
(0.0975734 0.000662198 0)
(0.0974822 0.00066767 0)
(0.0973919 0.000672702 0)
(0.0973024 0.000677305 0)
(0.0972137 0.000681514 0)
(0.0971256 0.000685387 0)
(0.0970382 0.000689011 0)
(0.0969513 0.000692502 0)
(0.0968649 0.000696008 0)
(0.0967788 0.000699706 0)
(0.096693 0.00070381 0)
(0.0966074 0.000708564 0)
(0.0965218 0.000714243 0)
(0.0964362 0.000721158 0)
(0.0963505 0.00072965 0)
(0.0962645 0.000740092 0)
(0.0961782 0.000752889 0)
(0.0960914 0.000768475 0)
(0.0960041 0.000787318 0)
(0.0959161 0.000809918 0)
(0.0958274 0.000836805 0)
(0.095738 0.000868545 0)
(0.0956477 0.00090574 0)
(0.0955567 0.000949028 0)
(0.095465 0.000999087 0)
(0.0953726 0.00105664 0)
(0.0952798 0.00112244 0)
(0.0951868 0.00119731 0)
(0.0950938 0.0012821 0)
(0.0950014 0.00137771 0)
(0.0949101 0.00148507 0)
(0.0948207 0.00160515 0)
(0.094734 0.00173894 0)
(0.094651 0.00188743 0)
(0.0945732 0.00205159 0)
(0.0945021 0.00223233 0)
(0.0944394 0.00243045 0)
(0.0943874 0.00264663 0)
(0.0943484 0.0028813 0)
(0.0943252 0.00313463 0)
(0.0943208 0.0034064 0)
(0.0943386 0.00369591 0)
(0.0943818 0.00400192 0)
(0.0944543 0.0043225 0)
(0.0945595 0.00465498 0)
(0.0947009 0.00499588 0)
(0.0948815 0.00534086 0)
(0.0951039 0.00568474 0)
(0.0953698 0.00602157 0)
(0.0956797 0.00634483 0)
(0.0960331 0.0066476 0)
(0.096428 0.0069229 0)
(0.0968608 0.00716411 0)
(0.0973266 0.00736543 0)
(0.100002 -1.00381e-06 0)
(0.100007 4.63858e-05 0)
(0.100008 0.000146602 0)
(0.0999967 0.000282398 0)
(0.099965 0.000422083 0)
(0.0999087 0.000536462 0)
(0.0998288 0.000611088 0)
(0.0997299 0.000647447 0)
(0.0996187 0.00065655 0)
(0.0995013 0.000651331 0)
(0.0993824 0.000641869 0)
(0.099265 0.000633989 0)
(0.0991506 0.000629977 0)
(0.0990395 0.000629982 0)
(0.0989317 0.000633218 0)
(0.0988267 0.000638714 0)
(0.0987241 0.00064564 0)
(0.0986235 0.000653402 0)
(0.0985246 0.000661614 0)
(0.0984273 0.000670031 0)
(0.0983312 0.000678503 0)
(0.0982364 0.000686926 0)
(0.0981426 0.000695228 0)
(0.0980498 0.000703347 0)
(0.097958 0.00071123 0)
(0.0978671 0.000718829 0)
(0.0977771 0.000726105 0)
(0.0976878 0.000733028 0)
(0.0975993 0.000739579 0)
(0.0975114 0.00074576 0)
(0.0974242 0.000751587 0)
(0.0973376 0.000757104 0)
(0.0972514 0.000762377 0)
(0.0971656 0.000767502 0)
(0.0970802 0.000772603 0)
(0.096995 0.000777835 0)
(0.09691 0.000783385 0)
(0.096825 0.000789473 0)
(0.09674 0.000796348 0)
(0.096655 0.000804296 0)
(0.0965698 0.00081363 0)
(0.0964843 0.000824694 0)
(0.0963985 0.000837864 0)
(0.0963124 0.000853542 0)
(0.0962258 0.00087216 0)
(0.0961388 0.000894177 0)
(0.0960513 0.000920075 0)
(0.0959634 0.000950365 0)
(0.0958751 0.000985582 0)
(0.0957864 0.00102629 0)
(0.0956976 0.00107306 0)
(0.0956087 0.00112652 0)
(0.0955199 0.0011873 0)
(0.0954317 0.00125604 0)
(0.0953443 0.00133342 0)
(0.0952583 0.00142014 0)
(0.0951742 0.00151689 0)
(0.0950927 0.00162436 0)
(0.0950147 0.00174325 0)
(0.0949411 0.00187422 0)
(0.0948732 0.00201785 0)
(0.0948122 0.00217469 0)
(0.0947596 0.00234515 0)
(0.0947173 0.00252949 0)
(0.0946871 0.0027278 0)
(0.094671 0.00293991 0)
(0.0946715 0.00316535 0)
(0.0946908 0.00340329 0)
(0.0947315 0.00365251 0)
(0.094796 0.00391132 0)
(0.0948868 0.00417754 0)
(0.0950062 0.00444843 0)
(0.0951562 0.00472076 0)
(0.0953384 0.00499077 0)
(0.0955539 0.00525427 0)
(0.095803 0.0055067 0)
(0.0960856 0.00574331 0)
(0.0964003 0.00595931 0)
(0.0967453 0.00615004 0)
(0.0971176 0.00631126 0)
(0.0975134 0.00643932 0)
(0.100002 -2.96036e-06 0)
(0.100007 4.46159e-05 0)
(0.100009 0.000148526 0)
(0.100001 0.000292082 0)
(0.0999743 0.00044288 0)
(0.0999249 0.000569836 0)
(0.099853 0.000656297 0)
(0.0997623 0.000702132 0)
(0.0996588 0.000717712 0)