/*--------------------------------*- C++ -*----------------------------------*\
| =========                 |                                                 |
| \\      /  F ield         | OpenFOAM: The Open Source CFD Toolbox           |
|  \\    /   O peration     | Version:  4.1                                   |
|   \\  /    A nd           | Web:      www.OpenFOAM.org                      |
|    \\/     M anipulation  |                                                 |
\*---------------------------------------------------------------------------*/
FoamFile
{
    version     2.0;
    format      ascii;
    class       volScalarField;
    location    "0.4";
    object      gradTy;
}
// * * * * * * * * * * * * * * * * * * * * * * * * * * * * * * * * * * * * * //

dimensions      [0 -1 0 1 0 0 0];

internalField   nonuniform List<scalar> 
512
(
-29.4649
-29.395
-29.268
-29.1043
-28.9251
-28.7475
-28.5837
-28.44
-28.3187
-28.2196
-28.1406
-28.0792
-28.0328
-27.9987
-27.9751
-27.9602
-27.9531
-27.9532
-27.9605
-27.9754
-27.9989
-28.0324
-28.0774
-28.1357
-28.2089
-28.2976
-28.4008
-28.5145
-28.6313
-28.7395
-28.8243
-28.8713
-29.4804
-29.4072
-29.2752
-29.106
-28.9224
-28.7419
-28.5764
-28.432
-28.3107
-28.212
-28.1337
-28.0729
-28.027
-27.9935
-27.9702
-27.9556
-27.9486
-27.9487
-27.9559
-27.9706
-27.9938
-28.0268
-28.0714
-28.1294
-28.2025
-28.2915
-28.3956
-28.5113
-28.6311
-28.743
-28.8314
-28.8808
-29.5122
-29.4321
-29.2894
-29.1093
-28.9168
-28.7302
-28.5614
-28.4158
-28.2947
-28.1969
-28.1197
-28.0603
-28.0156
-27.9831
-27.9605
-27.9464
-27.9397
-27.9398
-27.9468
-27.961
-27.9835
-28.0157
-28.0595
-28.1167
-28.1895
-28.2791
-28.3851
-28.5047
-28.6305
-28.75
-28.846
-28.9002
-29.562
-29.4708
-29.311
-29.1136
-28.9074
-28.7119
-28.5383
-28.3911
-28.2704
-28.174
-28.0989
-28.0414
-27.9985
-27.9675
-27.9461
-27.9327
-27.9264
-27.9265
-27.9331
-27.9466
-27.9682
-27.9991
-28.0415
-28.0976
-28.1698
-28.26
-28.3688
-28.4941
-28.6291
-28.7606
-28.8688
-28.9309
-29.6326
-29.5246
-29.3398
-29.1181
-28.8932
-28.6858
-28.5063
-28.3573
-28.2375
-28.1434
-28.0709
-28.0162
-27.9758
-27.9467
-27.9269
-27.9145
-27.9087
-27.9088
-27.9149
-27.9276
-27.9477
-27.9769
-28.0174
-28.0717
-28.1429
-28.2337
-28.3458
-28.4786
-28.6261
-28.7746
-28.9007
-28.9748
-29.7281
-29.5958
-29.3757
-29.1213
-28.8723
-28.6505
-28.4642
-28.3138
-28.1956
-28.1047
-28.0359
-27.9848
-27.9475
-27.921
-27.903
-27.892
-27.8867
-27.8869
-27.8924
-27.9039
-27.9222
-27.9492
-27.9872
-28.0391
-28.1085
-28.1994
-28.3152
-28.4569
-28.6204
-28.7919
-28.9432
-29.0349
-29.8548
-29.687
-29.4182
-29.121
-28.8425
-28.604
-28.4108
-28.2598
-28.1444
-28.0579
-27.9939
-27.9473
-27.9139
-27.8905
-27.8748
-27.8652
-27.8607
-27.8608
-27.8657
-27.8757
-27.8919
-27.9161
-27.9507
-27.9993
-28.0661
-28.1564
-28.2755
-28.4272
-28.6103
-28.8119
-28.9982
-29.1155
-30.0216
-29.8015
-29.4658
-29.114
-28.8004
-28.544
-28.3445
-28.1943
-28.0835
-28.0029
-27.9449
-27.9038
-27.875
-27.8552
-27.8422
-27.8344
-27.8307
-27.8309
-27.8349
-27.8432
-27.8568
-27.8776
-27.9081
-27.9523
-28.0152
-28.1035
-28.2251
-28.3872
-28.5931
-28.8332
-29.0681
-29.2233
-30.2416
-29.9431
-29.5155
-29.0953
-28.7419
-28.4674
-28.2636
-28.1166
-28.0125
-27.9396
-27.8892
-27.8546
-27.8312
-27.8157
-27.8057
-27.7999
-27.7972
-27.7973
-27.8003
-27.8067
-27.8173
-27.834
-27.8595
-27.898
-27.9554
-28.0398
-28.162
-28.3339
-28.5651
-28.8536
-29.1558
-29.3676
-30.5345
-30.1151
-29.5616
-29.0579
-28.6617
-28.3709
-28.1663
-28.0258
-27.9313
-27.8683
-27.8269
-27.8001
-27.7829
-27.7721
-27.7656
-27.7619
-27.7603
-27.7604
-27.7623
-27.7665
-27.7737
-27.7856
-27.805
-27.8365
-27.8863
-27.9642
-28.0842
-28.2634
-28.5204
-28.8684
-29.2639
-29.5629
-30.9307
-30.3188
-29.5936
-28.9916
-28.553
-28.2507
-28.0506
-27.9211
-27.8397
-27.7892
-27.7584
-27.7406
-27.7305
-27.7249
-27.7222
-27.7209
-27.7203
-27.7204
-27.7211
-27.7229
-27.7264
-27.7327
-27.7449
-27.7679
-27.8076
-27.8756
-27.9891
-28.1711
-28.4507
-28.8691
-29.394
-29.8308
-31.4784
-30.5489
-29.5933
-28.8824
-28.4082
-28.1027
-27.9149
-27.8019
-27.738
-27.7024
-27.684
-27.6765
-27.6742
-27.6743
-27.6757
-27.6769
-27.6775
-27.6776
-27.677
-27.6762
-27.6756
-27.6757
-27.6795
-27.6924
-27.7192
-27.7731
-27.8744
-28.0519
-28.3439
-28.841
-29.544
-30.2058
-32.2572
-30.7838
-29.5301
-28.7121
-28.219
-27.9229
-27.758
-27.6679
-27.6264
-27.6087
-27.6042
-27.6083
-27.6145
-27.6207
-27.6264
-27.6304
-27.6321
-27.6321
-27.6301
-27.6267
-27.6219
-27.615
-27.609
-27.6107
-27.6214
-27.6559
-27.738
-27.9015
-28.1833
-28.759
-29.702
-30.7441
-33.4033
-30.9622
-29.3563
-28.4586
-27.9785
-27.7081
-27.58
-27.5192
-27.5064
-27.5091
-27.5196
-27.537
-27.5522
-27.5644
-27.575
-27.5816
-27.5844
-27.5845
-27.5809
-27.5748
-27.5661
-27.5514
-27.534
-27.5242
-27.515
-27.5243
-27.5787
-27.7192
-27.947
-28.5831
-29.8332
-31.5412
-35.1589
-30.9305
-29.0037
-28.099
-27.6835
-27.4554
-27.3829
-27.3561
-27.38
-27.4051
-27.4307
-27.4636
-27.4881
-27.5059
-27.5219
-27.5314
-27.5347
-27.5353
-27.5297
-27.5211
-27.5091
-27.4859
-27.4545
-27.4349
-27.4014
-27.379
-27.3955
-27.5126
-27.6064
-28.2517
-29.8482
-32.7637
-37.9708
-30.3225
-28.3938
-27.6151
-27.3396
-27.1615
-27.172
-27.1777
-27.2506
-27.2982
-27.3372
-27.3897
-27.423
-27.4452
-27.4678
-27.4799
-27.4831
-27.4849
-27.4766
-27.4655
-27.4523
-27.4199
-27.3693
-27.3464
-27.2824
-27.2213
-27.1845
-27.3094
-27.1255
-27.6802
-29.5316
-34.7136
)
;

boundaryField
{
    left
    {
        type            calculated;
        value           nonuniform List<scalar> 
16
(
-29.4649
-29.4804
-29.5122
-29.562
-29.6326
-29.7281
-29.8548
-30.0216
-30.2416
-30.5345
-30.9307
-31.4784
-32.2572
-33.4033
-35.1589
-37.9708
)
;
    }
    right
    {
        type            calculated;
        value           nonuniform List<scalar> 
16
(
-28.8713
-28.8808
-28.9002
-28.9309
-28.9748
-29.0349
-29.1155
-29.2233
-29.3676
-29.5629
-29.8308
-30.2058
-30.7441
-31.5412
-32.7637
-34.7136
)
;
    }
    interface
    {
        type            calculated;
        value           nonuniform List<scalar> 
32
(
-39.7137
-29.8101
-28.0148
-27.3404
-27.1568
-27.0037
-27.0639
-27.0845
-27.1858
-27.2444
-27.2893
-27.3528
-27.3903
-27.4143
-27.4406
-27.4539
-27.4568
-27.4595
-27.4496
-27.4372
-27.4241
-27.3868
-27.3251
-27.3029
-27.2218
-27.1397
-27.0713
-27.2139
-26.8449
-27.3227
-29.2526
-35.9192
)
;
    }
    bottom
    {
        type            calculated;
        value           nonuniform List<scalar> 
32
(
-29.4611
-29.392
-29.2663
-29.1038
-28.9257
-28.7489
-28.5856
-28.442
-28.3207
-28.2214
-28.1423
-28.0808
-28.0342
-28
-27.9763
-27.9614
-27.9542
-27.9543
-27.9617
-27.9766
-28.0002
-28.0337
-28.0789
-28.1373
-28.2105
-28.2991
-28.402
-28.5153
-28.6314
-28.7386
-28.8225
-28.869
)
;
    }
    defaultFaces
    {
        type            empty;
    }
}


// ************************************************************************* //
