/*--------------------------------*- C++ -*----------------------------------*\
| =========                 |                                                 |
| \\      /  F ield         | OpenFOAM: The Open Source CFD Toolbox           |
|  \\    /   O peration     | Version:  4.1                                   |
|   \\  /    A nd           | Web:      www.OpenFOAM.org                      |
|    \\/     M anipulation  |                                                 |
\*---------------------------------------------------------------------------*/
FoamFile
{
    version     2.0;
    format      ascii;
    class       volScalarField;
    location    "0.4";
    object      gradTx;
}
// * * * * * * * * * * * * * * * * * * * * * * * * * * * * * * * * * * * * * //

dimensions      [0 -1 0 1 0 0 0];

internalField   nonuniform List<scalar> 
512
(
0.00864552
0.0243573
0.0360194
0.0425705
0.0443599
0.0425175
0.038368
0.0331078
0.0275674
0.0222954
0.0175785
0.0135168
0.0100961
0.00723865
0.00483374
0.00275663
0.00087867
-0.000927875
-0.00278778
-0.00482092
-0.0071377
-0.00982849
-0.0129433
-0.0164589
-0.0202314
-0.0239375
-0.0270189
-0.0286677
-0.027915
-0.0238952
-0.0162966
-0.00580747
0.0263329
0.0740935
0.109345
0.128919
0.134002
0.128144
0.115402
0.0994042
0.0826493
0.0667619
0.0525833
0.0403986
0.0301541
0.0216079
0.0144231
0.00822267
0.00261955
-0.00277006
-0.00832097
-0.014394
-0.021323
-0.0293841
-0.0387358
-0.0493201
-0.0607201
-0.0719794
-0.0814266
-0.0866155
-0.0845732
-0.0725897
-0.0496181
-0.0177054
0.0452494
0.126987
0.186618
0.218941
0.226428
0.215534
0.19331
0.165926
0.137556
0.110843
0.0871236
0.0668213
0.0498075
0.0356522
0.0237777
0.0135471
0.00431117
-0.0045713
-0.0137265
-0.0237594
-0.0352353
-0.0486313
-0.0642387
-0.0820005
-0.101272
-0.120507
-0.136934
-0.146407
-0.14375
-0.124058
-0.0851878
-0.0304793
0.0663536
0.185463
0.270766
0.315251
0.323539
0.305824
0.272611
0.232762
0.192119
0.154243
0.120866
0.0924651
0.0687798
0.0491521
0.0327404
0.0186356
0.00592124
-0.00630339
-0.0189174
-0.0327749
-0.0486847
-0.0673496
-0.0892347
-0.114343
-0.141881
-0.169791
-0.194241
-0.209293
-0.207241
-0.180364
-0.124729
-0.0448103
0.090843
0.252476
0.365193
0.420717
0.427288
0.400085
0.353713
0.299897
0.246087
0.196612
0.153441
0.116991
0.0867848
0.0618843
0.0411528
0.0233943
0.00741824
-0.00793688
-0.0238042
-0.0412923
-0.0614693
-0.0852967
-0.113469
-0.146136
-0.182466
-0.22002
-0.253985
-0.276543
-0.277016
-0.243918
-0.170355
-0.0615575
0.120316
0.331835
0.474031
0.538558
0.539668
0.49927
0.436863
0.367166
0.299098
0.237522
0.184435
0.140034
0.103524
0.0736206
0.0488559
0.0277298
0.00877178
-0.00944084
-0.0282946
-0.0491568
-0.0733721
-0.102201
-0.136639
-0.177086
-0.222833
-0.27125
-0.316692
-0.349426
-0.355283
-0.31766
-0.224812
-0.0818774
0.157021
0.428671
0.602443
0.672424
0.662665
0.604129
0.522069
0.434201
0.350642
0.276453
0.213377
0.161201
0.118686
0.0841286
0.0556903
0.0315501
0.00995301
-0.0107829
-0.0322936
-0.0562063
-0.0841588
-0.117756
-0.158376
-0.206801
-0.262643
-0.32335
-0.382712
-0.429169
-0.444544
-0.405299
-0.291828
-0.107405
0.204262
0.550149
0.757012
0.826435
0.798148
0.715085
0.609004
0.500374
0.400028
0.312773
0.239736
0.180064
0.131946
0.0931726
0.0614976
0.0347658
0.010935
-0.0119295
-0.0357046
-0.0622732
-0.0935779
-0.131617
-0.178245
-0.234767
-0.301367
-0.375935
-0.452122
-0.516847
-0.547609
-0.511606
-0.376646
-0.140548
0.267093
0.706581
0.946202
1.00513
0.947665
0.832057
0.6969
0.564733
0.446358
0.345729
0.262913
0.196168
0.142968
0.100516
0.0661222
0.0372909
0.0116932
-0.0128469
-0.0384314
-0.0671871
-0.101363
-0.143402
-0.195735
-0.260336
-0.338246
-0.428288
-0.524584
-0.613209
-0.667543
-0.642792
-0.486845
-0.184976
0.353538
0.913191
1.18089
1.21324
1.1121
0.954228
0.78441
0.625942
0.488501
0.374447
0.282251
0.209026
0.151412
0.105927
0.0694143
0.0390452
0.0122059
-0.0135017
-0.0403815
-0.0707803
-0.107237
-0.152692
-0.210265
-0.282714
-0.372261
-0.479273
-0.599176
-0.718367
-0.807461
-0.806954
-0.633656
-0.246477
0.476812
1.19302
1.47478
1.45511
1.29115
1.07975
0.869481
0.682232
0.525079
0.397935
0.29704
0.218135
0.156941
0.109183
0.0712319
0.0399565
0.0124553
-0.0138625
-0.0414696
-0.0728967
-0.110922
-0.159038
-0.221193
-0.300968
-0.402094
-0.527253
-0.674184
-0.831307
-0.970035
-1.01453
-0.834094
-0.334481
0.65949
1.5817
1.84447
1.73355
1.48253
1.20543
0.949234
0.731377
0.554466
0.415121
0.30654
0.22298
0.159237
0.110079
0.0714452
0.0399654
0.0124291
-0.0139004
-0.0416218
-0.0734035
-0.112149
-0.161967
-0.227842
-0.314046
-0.426122
-0.57003
-0.746912
-0.949143
-1.15647
-1.27862
-1.11451
-0.464882
0.941534
2.13556
2.30804
2.04766
1.68099
1.32638
1.01989
0.770705
0.574809
0.424899
0.310011
0.223047
0.158018
0.108441
0.0699373
0.039031
0.012122
-0.0135903
-0.0407791
-0.0722117
-0.110676
-0.16098
-0.229542
-0.320832
-0.44241
-0.604827
-0.813603
-1.06605
-1.36457
-1.61459
-1.51651
-0.665391
1.39618
2.94525
2.88035
2.38912
1.8771
1.4359
1.07675
0.797173
0.584038
0.426228
0.306743
0.217814
0.153075
0.104135
0.0665991
0.0371406
0.0115368
-0.012911
-0.0388963
-0.0693058
-0.106312
-0.15553
-0.225701
-0.320232
-0.448723
-0.628323
-0.869711
-1.17182
-1.58523
-2.03796
-2.10705
-0.985932
2.16213
4.15909
3.55981
2.73658
2.05627
1.52559
1.11431
0.80753
0.57984
0.418298
0.296086
0.206722
0.144322
0.0970786
0.0613092
0.0343289
0.0106827
-0.0118481
-0.0359293
-0.0647952
-0.0989679
-0.144946
-0.215916
-0.311334
-0.442508
-0.636686
-0.911011
-1.2502
-1.79656
-2.5577
-2.99553
-1.51936
3.5104
6.02287
4.29609
3.04919
2.1989
1.58619
1.1264
0.798651
0.559535
0.400876
0.277476
0.189081
0.131919
0.0872521
0.0538882
0.0307248
0.00956917
-0.0103987
-0.0317878
-0.0590029
-0.0887429
-0.128218
-0.200167
-0.293696
-0.420799
-0.62535
-0.936507
-1.27727
-1.95476
-3.15885
-4.36307
-2.44371
)
;

boundaryField
{
    left
    {
        type            calculated;
        value           uniform 0;
    }
    right
    {
        type            calculated;
        value           uniform 0;
    }
    interface
    {
        type            calculated;
        value           nonuniform List<scalar> 
32
(
3.5104
6.02287
4.29609
3.04919
2.1989
1.58619
1.1264
0.798651
0.559535
0.400876
0.277476
0.189081
0.131919
0.0872521
0.0538882
0.0307248
0.00956917
-0.0103987
-0.0317878
-0.0590029
-0.0887429
-0.128218
-0.200167
-0.293696
-0.420799
-0.62535
-0.936507
-1.27727
-1.95476
-3.15885
-4.36307
-2.44371
)
;
    }
    bottom
    {
        type            calculated;
        value           nonuniform List<scalar> 
32
(
0.00864552
0.0243573
0.0360194
0.0425705
0.0443599
0.0425175
0.038368
0.0331078
0.0275674
0.0222954
0.0175785
0.0135168
0.0100961
0.00723865
0.00483374
0.00275663
0.00087867
-0.000927875
-0.00278778
-0.00482092
-0.0071377
-0.00982849
-0.0129433
-0.0164589
-0.0202314
-0.0239375
-0.0270189
-0.0286677
-0.027915
-0.0238952
-0.0162966
-0.00580747
)
;
    }
    defaultFaces
    {
        type            empty;
    }
}


// ************************************************************************* //
