/*--------------------------------*- C++ -*----------------------------------*\
| =========                 |                                                 |
| \\      /  F ield         | OpenFOAM: The Open Source CFD Toolbox           |
|  \\    /   O peration     | Version:  4.1                                   |
|   \\  /    A nd           | Web:      www.OpenFOAM.org                      |
|    \\/     M anipulation  |                                                 |
\*---------------------------------------------------------------------------*/
FoamFile
{
    version     2.0;
    format      ascii;
    class       volScalarField;
    location    "0.4";
    object      T;
}
// * * * * * * * * * * * * * * * * * * * * * * * * * * * * * * * * * * * * * //

dimensions      [0 0 0 1 0 0 0];

internalField   nonuniform List<scalar> 
512
(
309.77
309.77
309.771
309.773
309.774
309.775
309.777
309.778
309.779
309.78
309.78
309.781
309.781
309.781
309.781
309.782
309.782
309.782
309.782
309.781
309.781
309.781
309.781
309.78
309.78
309.779
309.778
309.777
309.776
309.775
309.775
309.774
309.309
309.311
309.314
309.318
309.322
309.326
309.33
309.333
309.336
309.339
309.34
309.342
309.343
309.344
309.344
309.345
309.345
309.345
309.345
309.344
309.344
309.343
309.342
309.341
309.339
309.337
309.334
309.332
309.329
309.326
309.324
309.323
308.849
308.851
308.857
308.863
308.87
308.877
308.884
308.889
308.894
308.898
308.901
308.903
308.905
308.906
308.907
308.908
308.908
308.908
308.908
308.907
308.906
308.905
308.903
308.901
308.898
308.895
308.891
308.886
308.882
308.877
308.874
308.872
308.387
308.391
308.399
308.408
308.418
308.428
308.438
308.445
308.452
308.457
308.462
308.465
308.468
308.469
308.471
308.471
308.472
308.472
308.471
308.471
308.469
308.468
308.465
308.462
308.458
308.453
308.447
308.441
308.434
308.428
308.423
308.42
307.925
307.93
307.941
307.953
307.967
307.98
307.992
308.002
308.011
308.017
308.023
308.027
308.03
308.032
308.034
308.035
308.036
308.036
308.035
308.034
308.032
308.03
308.027
308.023
308.018
308.012
308.004
307.996
307.987
307.978
307.972
307.968
307.461
307.469
307.482
307.498
307.516
307.532
307.547
307.559
307.57
307.578
307.585
307.59
307.593
307.596
307.598
307.599
307.6
307.6
307.599
307.598
307.596
307.593
307.59
307.585
307.578
307.571
307.562
307.551
307.54
307.529
307.52
307.515
306.996
307.006
307.023
307.043
307.065
307.085
307.102
307.117
307.129
307.139
307.147
307.153
307.157
307.16
307.162
307.163
307.164
307.164
307.163
307.162
307.16
307.157
307.153
307.147
307.14
307.13
307.119
307.107
307.093
307.079
307.067
307.061
306.528
306.541
306.563
306.588
306.614
306.638
306.659
306.676
306.69
306.701
306.71
306.716
306.721
306.724
306.727
306.728
306.729
306.729
306.728
306.727
306.724
306.721
306.716
306.71
306.701
306.691
306.678
306.663
306.646
306.628
306.614
306.605
306.058
306.074
306.102
306.133
306.165
306.193
306.217
306.236
306.252
306.264
306.273
306.281
306.286
306.289
306.292
306.294
306.294
306.294
306.294
306.292
306.289
306.286
306.28
306.273
306.264
306.252
306.237
306.219
306.199
306.178
306.159
306.147
305.583
305.605
305.64
305.679
305.716
305.749
305.776
305.798
305.815
305.828
305.838
305.846
305.851
305.855
305.858
305.86
305.86
305.86
305.859
305.858
305.855
305.851
305.845
305.838
305.828
305.815
305.798
305.777
305.753
305.727
305.703
305.687
305.103
305.133
305.178
305.225
305.269
305.306
305.336
305.36
305.379
305.393
305.404
305.412
305.418
305.422
305.424
305.426
305.427
305.427
305.426
305.424
305.421
305.417
305.411
305.403
305.393
305.378
305.36
305.336
305.308
305.276
305.244
305.223
304.617
304.658
304.715
304.773
304.824
304.866
304.899
304.925
304.945
304.96
304.971
304.979
304.985
304.989
304.992
304.993
304.994
304.994
304.993
304.991
304.989
304.984
304.978
304.97
304.959
304.944
304.923
304.897
304.864
304.825
304.784
304.755
304.12
304.179
304.253
304.323
304.381
304.428
304.464
304.492
304.512
304.528
304.539
304.547
304.553
304.557
304.559
304.561
304.562
304.562
304.561
304.559
304.557
304.552
304.546
304.538
304.526
304.51
304.489
304.46
304.422
304.374
304.321
304.28
303.608
303.696
303.793
303.876
303.942
303.993
304.032
304.06
304.081
304.097
304.108
304.116
304.122
304.126
304.128
304.13
304.131
304.131
304.13
304.128
304.125
304.121
304.116
304.107
304.096
304.079
304.056
304.025
303.983
303.926
303.856
303.794
303.076
303.211
303.336
303.433
303.507
303.562
303.602
303.632
303.653
303.668
303.679
303.686
303.692
303.695
303.698
303.699
303.7
303.7
303.699
303.698
303.695
303.691
303.686
303.678
303.667
303.65
303.627
303.593
303.549
303.481
303.389
303.294
302.51
302.729
302.886
302.998
303.077
303.135
303.176
303.206
303.226
303.24
303.251
303.258
303.263
303.266
303.268
303.269
303.27
303.27
303.269
303.268
303.266
303.263
303.258
303.25
303.239
303.224
303.2
303.165
303.12
303.043
302.923
302.77
)
;

boundaryField
{
    left
    {
        type            zeroGradient;
    }
    right
    {
        type            zeroGradient;
    }
    interface
    {
        type            fixedValue;
        value           nonuniform List<scalar> 
32
(
302.215
302.513
302.686
302.804
302.886
302.947
302.988
303.019
303.039
303.053
303.064
303.071
303.075
303.079
303.081
303.082
303.083
303.083
303.082
303.081
303.078
303.075
303.071
303.063
303.053
303.037
303.014
302.977
302.935
302.852
302.716
302.51
)
;
    }
    bottom
    {
        type            fixedValue;
        value           uniform 310;
    }
    defaultFaces
    {
        type            empty;
    }
}


// ************************************************************************* //
