/*--------------------------------*- C++ -*----------------------------------*\
| =========                 |                                                 |
| \\      /  F ield         | OpenFOAM: The Open Source CFD Toolbox           |
|  \\    /   O peration     | Version:  4.1                                   |
|   \\  /    A nd           | Web:      www.OpenFOAM.org                      |
|    \\/     M anipulation  |                                                 |
\*---------------------------------------------------------------------------*/
FoamFile
{
    version     2.0;
    format      ascii;
    class       volScalarField;
    location    "0.2";
    object      T;
}
// * * * * * * * * * * * * * * * * * * * * * * * * * * * * * * * * * * * * * //

dimensions      [0 0 0 1 0 0 0];

internalField   nonuniform List<scalar> 
12013
(
300
300
300
300
300
300
300
300
300
300
300
300
300
300
300
300
300
300
300
300
300
300
300
300
300
300.001
300.001
300.001
300.001
300.002
300.002
300.003
300.004
300.005
300.006
300.007
300.008
300.01
300.012
300.015
300.017
300.02
300.024
300.028
300.033
300.038
300.043
300.05
300.057
300.065
300.074
300.083
300.094
300.106
300.118
300.132
300.147
300.163
300.18
300.199
300.219
300.241
300.264
300.289
300.316
300.345
300.375
300.408
300.443
300.48
300.52
300.563
300.608
300.657
300.71
300.768
300.83
300.899
300.976
301.063
301.168
300
300
300
300
300
300
300
300
300
300
300
300
300
300
300
300
300
300
300
300
300
300
300
300
300
300.001
300.001
300.001
300.001
300.002
300.002
300.003
300.004
300.005
300.006
300.007
300.008
300.01
300.012
300.015
300.017
300.02
300.024
300.028
300.033
300.038
300.043
300.05
300.057
300.065
300.074
300.083
300.094
300.105
300.118
300.132
300.147
300.163
300.18
300.199
300.219
300.241
300.264
300.289
300.316
300.344
300.375
300.407
300.442
300.479
300.519
300.561
300.606
300.655
300.708
300.764
300.825
300.892
300.966
301.048
301.14
300
300
300
300
300
300
300
300
300
300
300
300
300
300
300
300
300
300
300
300
300
300
300
300
300
300.001
300.001
300.001
300.001
300.002
300.002
300.003
300.004
300.005
300.006
300.007
300.008
300.01
300.012
300.014
300.017
300.02
300.024
300.028
300.032
300.038
300.043
300.05
300.057
300.065
300.073
300.083
300.094
300.105
300.118
300.131
300.146
300.162
300.18
300.198
300.218
300.24
300.263
300.288
300.314
300.343
300.373
300.405
300.44
300.476
300.516
300.557
300.602
300.65
300.701
300.756
300.815
300.879
300.948
301.022
301.101
300
300
300
300
300
300
300
300
300
300
300
300
300
300
300
300
300
300
300
300
300
300
300
300
300
300.001
300.001
300.001
300.001
300.002
300.002
300.003
300.004
300.005
300.006
300.007
300.008
300.01
300.012
300.014
300.017
300.02
300.024
300.028
300.032
300.037
300.043
300.05
300.057
300.064
300.073
300.083
300.093
300.105
300.117
300.131
300.145
300.161
300.179
300.197
300.217
300.239
300.261
300.286
300.312
300.34
300.37
300.402
300.436
300.472
300.511
300.552
300.595
300.642
300.691
300.744
300.8
300.86
300.923
300.99
301.058
300
300
300
300
300
300
300
300
300
300
300
300
300
300
300
300
300
300
300
300
300
300
300
300
300
300.001
300.001
300.001
300.001
300.002
300.002
300.003
300.004
300.005
300.006
300.007
300.008
300.01
300.012
300.014
300.017
300.02
300.024
300.028
300.032
300.037
300.043
300.049
300.056
300.064
300.073
300.082
300.093
300.104
300.116
300.13
300.144
300.16
300.177
300.196
300.215
300.236
300.259
300.283
300.309
300.337
300.366
300.398
300.431
300.466
300.504
300.543
300.586
300.63
300.677
300.727
300.78
300.835
300.893
300.952
301.012
300
300
300
300
300
300
300
300
300
300
300
300
300
300
300
300
300
300
300
300
300
300
300
300
300
300.001
300.001
300.001
300.001
300.002
300.002
300.003
300.004
300.004
300.006
300.007
300.008
300.01
300.012
300.014
300.017
300.02
300.023
300.027
300.032
300.037
300.043
300.049
300.056
300.064
300.072
300.082
300.092
300.103
300.115
300.129
300.143
300.159
300.175
300.194
300.213
300.234
300.256
300.28
300.305
300.332
300.361
300.391
300.424
300.458
300.494
300.532
300.573
300.615
300.66
300.707
300.755
300.806
300.858
300.91
300.963
300
300
300
300
300
300
300
300
300
300
300
300
300
300
300
300
300
300
300
300
300
300
300
300
300
300.001
300.001
300.001
300.001
300.002
300.002
300.003
300.004
300.004
300.005
300.007
300.008
300.01
300.012
300.014
300.017
300.02
300.023
300.027
300.032
300.037
300.042
300.048
300.055
300.063
300.071
300.081
300.091
300.102
300.114
300.127
300.141
300.157
300.173
300.191
300.21
300.23
300.252
300.275
300.3
300.326
300.354
300.384
300.415
300.448
300.482
300.519
300.557
300.597
300.639
300.682
300.727
300.773
300.819
300.866
300.913
300
300
300
300
300
300
300
300
300
300
300
300
300
300
300
300
300
300
300
300
300
300
300
300
300
300.001
300.001
300.001
300.001
300.002
300.002
300.003
300.004
300.004
300.005
300.007
300.008
300.01
300.012
300.014
300.017
300.02
300.023
300.027
300.031
300.036
300.042
300.048
300.055
300.062
300.07
300.079
300.089
300.1
300.112
300.125
300.139
300.154
300.17
300.187
300.206
300.226
300.247
300.269
300.293
300.319
300.345
300.374
300.404
300.435
300.468
300.502
300.538
300.575
300.614
300.654
300.695
300.736
300.778
300.82
300.862
300
300
300
300
300
300
300
300
300
300
300
300
300
300
300
300
300
300
300
300
300
300
300
300
300
300.001
300.001
300.001
300.001
300.002
300.002
300.003
300.003
300.004
300.005
300.007
300.008
300.01
300.012
300.014
300.016
300.019
300.023
300.026
300.031
300.036
300.041
300.047
300.054
300.061
300.069
300.078
300.088
300.098
300.11
300.122
300.136
300.151
300.166
300.183
300.201
300.22
300.241
300.262
300.285
300.31
300.335
300.362
300.39
300.42
300.451
300.483
300.517
300.551
300.587
300.623
300.66
300.697
300.735
300.772
300.809
300
300
300
300
300
300
300
300
300
300
300
300
300
300
300
300
300
300
300
300
300
300
300
300
300
300.001
300.001
300.001
300.001
300.002
300.002
300.003
300.003
300.004
300.005
300.006
300.008
300.009
300.011
300.014
300.016
300.019
300.022
300.026
300.03
300.035
300.04
300.046
300.052
300.06
300.068
300.076
300.086
300.096
300.107
300.119
300.133
300.147
300.162
300.178
300.195
300.214
300.233
300.254
300.276
300.299
300.323
300.349
300.375
300.403
300.432
300.461
300.492
300.524
300.556
300.589
300.622
300.656
300.69
300.723
300.756
300
300
300
300
300
300
300
300
300
300
300
300
300
300
300
300
300
300
300
300
300
300
300
300
300
300.001
300.001
300.001
300.001
300.002
300.002
300.003
300.003
300.004
300.005
300.006
300.008
300.009
300.011
300.013
300.016
300.018
300.022
300.025
300.029
300.034
300.039
300.045
300.051
300.058
300.066
300.074
300.083
300.093
300.104
300.116
300.128
300.142
300.156
300.172
300.188
300.206
300.225
300.244
300.265
300.287
300.309
300.333
300.358
300.384
300.41
300.437
300.466
300.494
300.524
300.553
300.583
300.613
300.643
300.673
300.702
300
300
300
300
300
300
300
300
300
300
300
300
300
300
300
300
300
300
300
300
300
300
300
300
300
300
300.001
300.001
300.001
300.002
300.002
300.003
300.003
300.004
300.005
300.006
300.007
300.009
300.011
300.013
300.015
300.018
300.021
300.025
300.029
300.033
300.038
300.043
300.05
300.056
300.064
300.072
300.08
300.09
300.1
300.112
300.124
300.136
300.15
300.165
300.181
300.197
300.215
300.233
300.252
300.273
300.294
300.316
300.339
300.362
300.386
300.411
300.437
300.463
300.489
300.516
300.542
300.569
300.596
300.622
300.648
300
300
300
300
300
300
300
300
300
300
300
300
300
300
300
300
300
300
300
300
300
300
300
300
300
300
300.001
300.001
300.001
300.002
300.002
300.003
300.003
300.004
300.005
300.006
300.007
300.009
300.01
300.012
300.015
300.017
300.02
300.024
300.028
300.032
300.037
300.042
300.048
300.054
300.061
300.069
300.077
300.086
300.096
300.107
300.118
300.13
300.143
300.157
300.172
300.187
300.203
300.221
300.238
300.257
300.277
300.297
300.318
300.339
300.361
300.384
300.406
300.43
300.453
300.477
300.5
300.524
300.547
300.571
300.593
300
300
300
300
300
300
300
300
300
300
300
300
300
300
300
300
300
300
300
300
300
300
300
300
300
300
300.001
300.001
300.001
300.001
300.002
300.002
300.003
300.004
300.005
300.006
300.007
300.008
300.01
300.012
300.014
300.017
300.02
300.023
300.026
300.03
300.035
300.04
300.046
300.052
300.058
300.066
300.073
300.082
300.091
300.101
300.112
300.123
300.135
300.148
300.162
300.176
300.191
300.207
300.223
300.24
300.258
300.276
300.295
300.314
300.334
300.354
300.375
300.395
300.416
300.437
300.458
300.479
300.499
300.519
300.54
300
300
300
300
300
300
300
300
300
300
300
300
300
300
300
300
300
300
300
300
300
300
300
300
300
300
300.001
300.001
300.001
300.001
300.002
300.002
300.003
300.004
300.004
300.005
300.007
300.008
300.01
300.011
300.014
300.016
300.019
300.022
300.025
300.029
300.033
300.038
300.043
300.049
300.055
300.062
300.069
300.077
300.086
300.095
300.105
300.115
300.127
300.138
300.151
300.164
300.178
300.192
300.207
300.222
300.238
300.255
300.271
300.289
300.306
300.324
300.342
300.36
300.378
300.397
300.415
300.433
300.451
300.469
300.486
300
300
300
300
300
300
300
300
300
300
300
300
300
300
300
300
300
300
300
300
300
300
300
300
300
300
300.001
300.001
300.001
300.001
300.002
300.002
300.003
300.003
300.004
300.005
300.006
300.008
300.009
300.011
300.013
300.015
300.018
300.02
300.024
300.027
300.031
300.036
300.04
300.046
300.052
300.058
300.065
300.072
300.08
300.088
300.097
300.107
300.117
300.128
300.139
300.151
300.163
300.176
300.19
300.203
300.217
300.232
300.247
300.262
300.277
300.293
300.309
300.325
300.341
300.356
300.372
300.388
300.404
300.419
300.434
300
300
300
300
300
300
300
300
300
300
300
300
300
300
300
300
300
300
300
300
300
300
300
300
300
300
300.001
300.001
300.001
300.001
300.002
300.002
300.003
300.003
300.004
300.005
300.006
300.007
300.008
300.01
300.012
300.014
300.016
300.019
300.022
300.025
300.029
300.033
300.038
300.042
300.048
300.054
300.06
300.066
300.074
300.081
300.089
300.098
300.107
300.117
300.127
300.137
300.148
300.16
300.172
300.184
300.196
300.209
300.222
300.235
300.248
300.262
300.276
300.289
300.303
300.317
300.33
300.344
300.357
300.37
300.383
300
300
300
300
300
300
300
300
300
300
300
300
300
300
300
300
300
300
300
300
300
300
300
300
300
300
300
300.001
300.001
300.001
300.001
300.002
300.002
300.003
300.004
300.004
300.005
300.007
300.008
300.009
300.011
300.013
300.015
300.018
300.02
300.023
300.027
300.03
300.034
300.039
300.044
300.049
300.054
300.06
300.067
300.074
300.081
300.089
300.097
300.105
300.114
300.123
300.133
300.143
300.153
300.164
300.174
300.186
300.197
300.208
300.22
300.231
300.243
300.255
300.266
300.278
300.289
300.301
300.312
300.323
300.335
300
300
300
300
300
300
300
300
300
300
300
300
300
300
300
300
300
300
300
300
300
300
300
300
300
300
300
300.001
300.001
300.001
300.001
300.002
300.002
300.003
300.003
300.004
300.005
300.006
300.007
300.009
300.01
300.012
300.014
300.016
300.018
300.021
300.024
300.027
300.031
300.035
300.039
300.044
300.049
300.054
300.06
300.066
300.072
300.079
300.086
300.093
300.101
300.109
300.117
300.126
300.135
300.144
300.153
300.162
300.172
300.182
300.191
300.201
300.211
300.221
300.231
300.24
300.25
300.26
300.269
300.279
300.288
300
300
300
300
300
300
300
300
300
300
300
300
300
300
300
300
300
300
300
300
300
300
300
300
300
300
300
300
300.001
300.001
300.001
300.002
300.002
300.002
300.003
300.004
300.004
300.005
300.006
300.008
300.009
300.011
300.012
300.014
300.016
300.019
300.022
300.024
300.028
300.031
300.035
300.039
300.043
300.048
300.053
300.058
300.063
300.069
300.075
300.082
300.088
300.095
300.102
300.109
300.117
300.124
300.132
300.14
300.148
300.156
300.164
300.172
300.18
300.189
300.197
300.205
300.213
300.221
300.229
300.237
300.244
300
300
300
300
300
300
300
300
300
300
300
300
300
300
300
300
300
300
300
300
300
300
300
300
300
300
300
300
300.001
300.001
300.001
300.001
300.002
300.002
300.003
300.003
300.004
300.005
300.006
300.007
300.008
300.009
300.011
300.013
300.014
300.017
300.019
300.021
300.024
300.027
300.03
300.034
300.037
300.041
300.046
300.05
300.055
300.059
300.065
300.07
300.075
300.081
300.087
300.093
300.099
300.105
300.112
300.118
300.125
300.132
300.138
300.145
300.152
300.158
300.165
300.172
300.178
300.185
300.191
300.198
300.204
300
300
300
300
300
300
300
300
300
300
300
300
300
300
300
300
300
300
300
300
300
300
300
300
300
300
300
300
300
300.001
300.001
300.001
300.001
300.002
300.002
300.003
300.003
300.004
300.005
300.006
300.007
300.008
300.009
300.011
300.012
300.014
300.016
300.018
300.021
300.023
300.026
300.029
300.032
300.035
300.039
300.042
300.046
300.05
300.054
300.059
300.063
300.068
300.073
300.078
300.083
300.088
300.093
300.098
300.103
300.109
300.114
300.12
300.125
300.13
300.136
300.141
300.146
300.152
300.157
300.162
300.167
300
300
300
300
300
300
300
300
300
300
300
300
300
300
300
300
300
300
300
300
300
300
300
300
300
300
300
300
300
300.001
300.001
300.001
300.001
300.002
300.002
300.002
300.003
300.003
300.004
300.005
300.006
300.007
300.008
300.009
300.01
300.012
300.014
300.015
300.017
300.019
300.022
300.024
300.026
300.029
300.032
300.035
300.038
300.041
300.045
300.048
300.052
300.056
300.059
300.063
300.067
300.071
300.075
300.08
300.084
300.088
300.092
300.097
300.101
300.105
300.109
300.113
300.118
300.122
300.126
300.13
300.134
300
300
300
300
300
300
300
300
300
300
300
300
300
300
300
300
300
300
300
300
300
300
300
300
300
300
300
300
300
300
300.001
300.001
300.001
300.001
300.002
300.002
300.002
300.003
300.003
300.004
300.005
300.006
300.006
300.007
300.009
300.01
300.011
300.012
300.014
300.016
300.017
300.019
300.021
300.024
300.026
300.028
300.031
300.033
300.036
300.039
300.041
300.044
300.047
300.05
300.053
300.057
300.06
300.063
300.066
300.07
300.073
300.076
300.079
300.083
300.086
300.089
300.092
300.095
300.099
300.102
300.105
300
300
300
300
300
300
300
300
300
300
300
300
300
300
300
300
300
300
300
300
300
300
300
300
300
300
300
300
300
300
300
300.001
300.001
300.001
300.001
300.002
300.002
300.002
300.003
300.003
300.004
300.004
300.005
300.006
300.007
300.008
300.009
300.01
300.011
300.012
300.014
300.015
300.017
300.018
300.02
300.022
300.024
300.026
300.028
300.03
300.032
300.034
300.037
300.039
300.041
300.044
300.046
300.049
300.051
300.053
300.056
300.058
300.061
300.063
300.066
300.068
300.071
300.073
300.075
300.078
300.08
300
300
300
300
300
300
300
300
300
300
300
300
300
300
300
300
300
300
300
300
300
300
300
300
300
300
300
300
300
300
300
300
300.001
300.001
300.001
300.001
300.001
300.002
300.002
300.002
300.003
300.003
300.004
300.005
300.005
300.006
300.007
300.008
300.008
300.009
300.01
300.012
300.013
300.014
300.015
300.017
300.018
300.02
300.021
300.023
300.024
300.026
300.027
300.029
300.031
300.033
300.034
300.036
300.038
300.04
300.042
300.043
300.045
300.047
300.049
300.051
300.052
300.054
300.056
300.057
300.059
300
300
300
300
300
300
300
300
300
300
300
300
300
300
300
300
300
300
300
300
300
300
300
300
300
300
300
300
300
300
300
300
300
300
300.001
300.001
300.001
300.001
300.001
300.002
300.002
300.002
300.003
300.003
300.004
300.004
300.005
300.006
300.006
300.007
300.008
300.008
300.009
300.01
300.011
300.012
300.013
300.014
300.015
300.016
300.018
300.019
300.02
300.021
300.022
300.024
300.025
300.026
300.027
300.029
300.03
300.031
300.032
300.034
300.035
300.036
300.037
300.039
300.04
300.041
300.042
300
300
300
300
300
300
300
300
300
300
300
300
300
300
300
300
300
300
300
300
300
300
300
300
300
300
300
300
300
300
300
300
300
300
300
300
300.001
300.001
300.001
300.001
300.001
300.002
300.002
300.002
300.003
300.003
300.003
300.004
300.004
300.005
300.005
300.006
300.007
300.007
300.008
300.008
300.009
300.01
300.011
300.011
300.012
300.013
300.014
300.015
300.016
300.016
300.017
300.018
300.019
300.02
300.021
300.022
300.022
300.023
300.024
300.025
300.026
300.027
300.027
300.028
300.029
300
300
300
300
300
300
300
300
300
300
300
300
300
300
300
300
300
300
300
300
300
300
300
300
300
300
300
300
300
300
300
300
300
300
300
300
300
300
300.001
300.001
300.001
300.001
300.001
300.001
300.002
300.002
300.002
300.003
300.003
300.003
300.004
300.004
300.004
300.005
300.005
300.006
300.006
300.007
300.007
300.008
300.008
300.009
300.009
300.01
300.01
300.011
300.011
300.012
300.013
300.013
300.014
300.014
300.015
300.015
300.016
300.016
300.017
300.018
300.018
300.019
300.019
300
300
300
300
300
300
300
300
300
300
300
300
300
300
300
300
300
300
300
300
300
300
300
300
300
300
300
300
300
300
300
300
300
300
300
300
300
300
300
300
300
300.001
300.001
300.001
300.001
300.001
300.001
300.002
300.002
300.002
300.002
300.002
300.003
300.003
300.003
300.003
300.004
300.004
300.004
300.005
300.005
300.005
300.006
300.006
300.006
300.007
300.007
300.007
300.008
300.008
300.009
300.009
300.009
300.01
300.01
300.01
300.011
300.011
300.011
300.012
300.012
300
300
300
300
300
300
300
300
300
300
300
300
300
300
300
300
300
300
300
300
300
300
300
300
300
300
300
300
300
300
300
300
300
300
300
300
300
300
300
300
300
300
300
300
300
300.001
300.001
300.001
300.001
300.001
300.001
300.001
300.001
300.002
300.002
300.002
300.002
300.002
300.003
300.003
300.003
300.003
300.003
300.004
300.004
300.004
300.004
300.004
300.005
300.005
300.005
300.005
300.005
300.006
300.006
300.006
300.006
300.006
300.007
300.007
300.007
300
300
300
300
300
300
300
300
300
300
300
300
300
300
300
300
300
300
300
300
300
300
300
300
300
300
300
300
300
300
300
300
300
300
300
300
300
300
300
300
300
300
300
300
300
300
300
300
300
300
300
300.001
300.001
300.001
300.001
300.001
300.001
300.001
300.001
300.001
300.001
300.002
300.002
300.002
300.002
300.002
300.002
300.002
300.002
300.003
300.003
300.003
300.003
300.003
300.003
300.003
300.003
300.003
300.004
300.004
300.004
300
300
300
300
300
300
300
300
300
300
300
300
300
300
300
300
300
300
300
300
299.999
299.999
299.999
299.999
299.999
299.999
299.999
300
300
300
300
300
300
300
300
300
300
300
300
300
300
300
300
300
300
300
300
300
300
300
300
300
300
300
300
300
300
300
300
300
300.001
300.001
300.001
300.001
300.001
300.001
300.001
300.001
300.001
300.001
300.001
300.001
300.001
300.001
300.001
300.001
300.002
300.002
300.002
300.002
300.002
300
300
300
300
300
300
300
300
300
300
300
300
300
300
299.999
299.999
299.999
299.999
299.999
299.999
299.999
299.999
299.999
299.999
299.999
299.999
299.999
299.999
299.999
299.999
299.999
299.999
299.999
299.999
299.999
299.999
299.999
300
300
300
300
300
300
300
300
300
300
300
300
300
300
300
300
300
300
300
300
300
300
300
300
300
300
300
300
300
300
300
300
300
300
300
300
300
300
300
300
300.001
300.001
300.001
300.001
300
300
300
300
300
300
300
300
300
300
300
300
299.999
299.999
299.999
299.999
299.999
299.999
299.999
299.999
299.999
299.999
299.999
299.999
299.999
299.999
299.999
299.999
299.999
299.999
299.999
299.999
299.999
299.999
299.999
299.999
299.999
299.999
299.999
299.999
299.999
299.999
299.999
299.999
299.999
299.999
299.999
299.999
300
300
300
300
300
300
300
300
300
300
300
300
300
300
300
300
300
300
300
300
300
300
300
300
300
300
300
300
300
300
300
300
300
300
300
300
300
300
300
300
300
300
300
299.999
299.999
299.999
299.999
299.999
299.999
299.999
299.999
299.999
299.999
299.999
299.999
299.999
299.999
299.999
299.999
299.999
299.999
299.999
299.999
299.999
299.999
299.999
299.999
299.999
299.999
299.999
299.999
299.999
299.999
299.999
299.999
299.999
299.999
299.999
299.999
299.999
299.999
299.999
299.999
299.999
299.999
299.999
299.999
299.999
299.999
299.999
299.999
299.999
299.999
299.999
299.999
299.999
299.999
299.999
299.999
300
300
300
300
300
300
300
300
300
300
300
300
300
300
300
300
300
300
300
300
300
300
300
300
299.999
299.999
299.999
299.999
299.999
299.999
299.999
299.999
299.999
299.999
299.999
299.999
299.999
299.999
299.999
299.999
299.999
299.999
299.999
299.999
299.999
299.999
299.999
299.999
299.999
299.999
299.999
299.999
299.999
299.999
299.999
299.999
299.999
299.999
299.999
299.999
299.999
299.999
299.999
299.999
299.999
299.999
299.999
299.999
299.999
299.999
299.999
299.999
299.999
299.999
299.999
299.999
299.999
299.999
299.999
299.999
299.999
299.999
299.999
299.999
299.999
299.999
299.999
299.999
299.999
299.999
299.999
299.999
299.999
299.999
299.999
299.999
300
300
300
300
300
300
300
300
299.999
299.999
299.999
299.999
299.999
299.999
299.999
299.999
299.999
299.999
299.999
299.999
299.999
299.999
299.999
299.999
299.999
299.999
299.999
299.999
299.999
299.999
299.999
299.999
299.999
299.999
299.999
299.999
299.999
299.999
299.999
299.999
299.999
299.999
299.999
299.999
299.999
299.999
299.999
299.999
299.999
299.999
299.999
299.999
299.999
299.999
299.999
299.999
299.999
299.999
299.999
299.999
299.999
299.999
299.999
299.999
299.999
299.999
299.999
299.999
299.999
299.999
299.999
299.999
299.999
299.999
299.999
299.999
299.999
299.999
299.999
299.999
299.999
300
300
300
300
300
300
300
300
299.999
299.999
299.999
299.999
299.999
299.999
299.999
299.999
299.999
299.999
299.999
299.999
299.999
299.999
299.999
299.999
299.999
299.999
299.999
299.999
299.999
299.999
299.999
299.999
299.999
299.999
299.999
299.999
299.999
299.999
299.999
299.999
299.999
299.999
299.999
299.999
299.999
299.999
299.999
299.999
299.999
299.999
299.999
299.999
299.999
299.999
299.999
299.999
299.999
299.999
299.999
299.999
299.999
299.999
299.999
299.999
299.999
299.999
299.999
299.999
299.999
299.999
299.999
299.999
299.999
299.999
299.999
299.999
299.999
299.999
299.999
299.999
299.999
300
300
300
300
300
300
300
299.999
299.999
299.999
299.999
299.999
299.999
299.999
299.999
299.999
299.999
299.999
299.999
299.999
299.999
299.999
299.999
299.999
299.999
299.999
299.999
299.999
299.999
299.999
299.999
299.999
299.999
299.999
299.999
299.999
299.999
299.999
299.999
299.999
299.999
299.999
299.999
299.999
299.999
299.999
299.999
299.999
299.999
299.999
299.999
299.999
299.999
299.999
299.999
299.999
299.999
299.999
299.999
299.999
299.999
299.999
299.999
299.999
299.999
299.999
299.999
299.999
299.999
299.999
299.999
299.999
299.999
299.999
299.999
299.999
299.999
299.999
299.999
299.999
299.999
300
300
300
300
300
300
300
299.999
299.999
299.999
299.999
299.999
299.999
299.999
299.999
299.999
299.999
299.999
299.999
299.999
299.999
299.999
299.999
299.999
299.999
299.999
299.999
299.999
299.999
299.999
299.999
299.999
299.999
299.999
299.999
299.999
299.999
299.999
299.999
299.999
299.999
299.999
299.999
299.999
299.999
299.999
299.999
299.999
299.999
299.999
299.999
299.999
299.999
299.999
299.999
299.999
299.999
299.999
299.999
299.999
299.999
299.999
299.999
299.999
299.999
299.999
299.999
299.999
299.999
299.999
299.999
299.999
299.999
299.999
299.999
299.999
299.999
299.999
299.999
299.999
299.999
301.304
301.409
301.495
301.569
301.635
301.692
301.744
301.789
301.829
301.863
301.891
301.912
301.921
301.935
301.952
301.97
301.987
302.004
302.021
302.037
302.051
302.064
302.076
302.088
302.099
302.111
302.123
302.133
302.144
302.154
302.163
302.172
302.18
302.188
302.196
302.203
302.21
302.217
302.224
302.23
302.236
302.242
302.247
302.252
302.257
302.261
302.265
302.269
302.273
302.277
302.28
302.284
302.287
302.289
302.292
302.295
302.298
302.3
302.302
302.304
302.306
302.308
302.31
302.312
302.313
302.315
302.316
302.317
302.318
302.319
302.321
302.322
302.323
302.324
302.324
302.325
302.326
302.327
302.327
302.328
302.329
302.329
302.33
302.33
302.33
302.331
302.331
302.332
302.332
302.332
302.333
302.333
302.333
302.333
302.334
302.334
302.334
302.334
302.334
302.335
302.335
302.335
302.335
302.335
302.335
302.335
302.335
302.335
302.335
302.335
302.335
302.335
302.335
302.335
302.335
302.335
302.335
302.335
302.335
302.335
302.335
302.335
302.335
302.335
302.335
302.334
302.334
302.334
302.334
302.333
302.333
302.332
302.332
302.331
302.331
302.33
302.329
302.328
302.327
302.326
302.324
302.323
302.32
302.318
302.315
302.311
302.307
302.303
302.296
302.288
302.276
302.264
302.25
302.233
302.211
302.184
302.156
302.11
302.065
301.93
301.696
301.24
301.331
301.412
301.483
301.547
301.604
301.654
301.699
301.739
301.774
301.802
301.825
301.843
301.86
301.878
301.896
301.914
301.931
301.948
301.964
301.979
301.992
302.005
302.017
302.029
302.041
302.052
302.063
302.074
302.084
302.093
302.102
302.11
302.118
302.126
302.134
302.141
302.147
302.154
302.16
302.166
302.172
302.177
302.182
302.187
302.191
302.196
302.2
302.203
302.207
302.21
302.214
302.217
302.219
302.222
302.225
302.227
302.23
302.232
302.234
302.236
302.238
302.239
302.241
302.243
302.244
302.245
302.246
302.248
302.249
302.25
302.251
302.252
302.253
302.254
302.254
302.255
302.256
302.256
302.257
302.258
302.258
302.259
302.259
302.259
302.26
302.26
302.261
302.261
302.261
302.262
302.262
302.262
302.262
302.262
302.263
302.263
302.263
302.263
302.263
302.263
302.264
302.264
302.264
302.264
302.264
302.264
302.264
302.264
302.264
302.264
302.264
302.264
302.264
302.264
302.264
302.264
302.264
302.264
302.264
302.264
302.264
302.264
302.263
302.263
302.263
302.263
302.263
302.262
302.262
302.262
302.261
302.261
302.26
302.26
302.259
302.258
302.257
302.256
302.255
302.254
302.252
302.25
302.247
302.245
302.241
302.237
302.232
302.226
302.218
302.207
302.195
302.181
302.164
302.142
302.114
302.084
302.036
301.981
301.846
301.615
301.182
301.261
301.334
301.401
301.461
301.516
301.565
301.61
301.649
301.684
301.714
301.739
301.761
301.781
301.8
301.819
301.837
301.855
301.872
301.888
301.903
301.917
301.93
301.943
301.955
301.967
301.978
301.989
302
302.01
302.019
302.028
302.037
302.045
302.053
302.06
302.067
302.074
302.081
302.087
302.093
302.098
302.104
302.109
302.113
302.118
302.122
302.126
302.13
302.133
302.137
302.14
302.143
302.146
302.149
302.151
302.154
302.156
302.158
302.16
302.162
302.164
302.165
302.167
302.169
302.17
302.171
302.172
302.173
302.175
302.176
302.177
302.178
302.178
302.179
302.18
302.181
302.181
302.182
302.183
302.183
302.184
302.184
302.184
302.185
302.185
302.186
302.186
302.186
302.187
302.187
302.187
302.187
302.188
302.188
302.188
302.188
302.188
302.188
302.189
302.189
302.189
302.189
302.189
302.189
302.189
302.189
302.189
302.189
302.189
302.189
302.189
302.189
302.189
302.189
302.189
302.189
302.189
302.189
302.189
302.189
302.189
302.189
302.189
302.188
302.188
302.188
302.188
302.188
302.187
302.187
302.187
302.186
302.186
302.185
302.184
302.184
302.183
302.182
302.181
302.179
302.178
302.175
302.173
302.17
302.167
302.163
302.158
302.152
302.144
302.134
302.122
302.108
302.09
302.068
302.041
302.008
301.959
301.895
301.761
301.536
301.127
301.195
301.26
301.321
301.378
301.43
301.478
301.521
301.56
301.594
301.625
301.652
301.676
301.698
301.719
301.738
301.757
301.775
301.792
301.808
301.824
301.838
301.852
301.865
301.878
301.89
301.901
301.912
301.923
301.933
301.942
301.952
301.96
301.968
301.976
301.984
301.991
301.998
302.004
302.01
302.016
302.022
302.027
302.032
302.037
302.041
302.045
302.049
302.053
302.056
302.06
302.063
302.066
302.069
302.071
302.074
302.076
302.079
302.081
302.083
302.085
302.086
302.088
302.089
302.091
302.092
302.093
302.095
302.096
302.097
302.098
302.099
302.1
302.1
302.101
302.102
302.103
302.103
302.104
302.104
302.105
302.105
302.106
302.106
302.107
302.107
302.107
302.108
302.108
302.108
302.109
302.109
302.109
302.109
302.109
302.11
302.11
302.11
302.11
302.11
302.11
302.11
302.111
302.111
302.111
302.111
302.111
302.111
302.111
302.111
302.111
302.111
302.111
302.111
302.111
302.111
302.111
302.111
302.111
302.111
302.111
302.111
302.11
302.11
302.11
302.11
302.11
302.11
302.109
302.109
302.109
302.108
302.108
302.107
302.107
302.106
302.106
302.105
302.104
302.103
302.101
302.1
302.098
302.095
302.093
302.089
302.086
302.081
302.075
302.067
302.057
302.045
302.031
302.014
301.991
301.964
301.929
301.878
301.808
301.675
301.459
301.072
301.132
301.19
301.245
301.297
301.346
301.391
301.432
301.47
301.505
301.536
301.564
301.589
301.612
301.634
301.654
301.674
301.692
301.71
301.726
301.742
301.757
301.771
301.784
301.797
301.809
301.821
301.832
301.842
301.852
301.862
301.871
301.88
301.888
301.896
301.904
301.911
301.917
301.924
301.93
301.936
301.941
301.947
301.952
301.956
301.961
301.965
301.969
301.972
301.976
301.979
301.982
301.985
301.988
301.991
301.993
301.996
301.998
302
302.002
302.004
302.005
302.007
302.008
302.01
302.011
302.012
302.013
302.014
302.015
302.016
302.017
302.018
302.019
302.02
302.02
302.021
302.022
302.022
302.023
302.023
302.024
302.024
302.025
302.025
302.025
302.026
302.026
302.026
302.027
302.027
302.027
302.027
302.027
302.028
302.028
302.028
302.028
302.028
302.028
302.028
302.029
302.029
302.029
302.029
302.029
302.029
302.029
302.029
302.029
302.029
302.029
302.029
302.029
302.029
302.029
302.029
302.029
302.029
302.029
302.029
302.029
302.028
302.028
302.028
302.028
302.028
302.028
302.027
302.027
302.027
302.026
302.026
302.026
302.025
302.025
302.024
302.023
302.022
302.021
302.02
302.018
302.016
302.014
302.012
302.008
302.005
302
301.994
301.986
301.977
301.965
301.951
301.934
301.911
301.883
301.847
301.795
301.72
301.589
301.384
301.016
301.069
301.121
301.171
301.218
301.264
301.306
301.345
301.382
301.416
301.446
301.475
301.501
301.525
301.547
301.568
301.588
301.607
301.624
301.641
301.657
301.672
301.686
301.7
301.713
301.725
301.737
301.748
301.759
301.769
301.778
301.788
301.796
301.805
301.813
301.82
301.827
301.834
301.84
301.846
301.852
301.858
301.863
301.868
301.872
301.877
301.881
301.885
301.889
301.892
301.895
301.898
301.901
301.904
301.907
301.909
301.911
301.913
301.915
301.917
301.919
301.921
301.922
301.924
301.925
301.926
301.927
301.929
301.93
301.931
301.932
301.932
301.933
301.934
301.935
301.935
301.936
301.937
301.937
301.938
301.938
301.939
301.939
301.939
301.94
301.94
301.94
301.941
301.941
301.941
301.941
301.942
301.942
301.942
301.942
301.942
301.942
301.943
301.943
301.943
301.943
301.943
301.943
301.943
301.943
301.943
301.943
301.943
301.943
301.944
301.944
301.944
301.944
301.944
301.944
301.943
301.943
301.943
301.943
301.943
301.943
301.943
301.943