/*--------------------------------*- C++ -*----------------------------------*\
| =========                 |                                                 |
| \\      /  F ield         | OpenFOAM: The Open Source CFD Toolbox           |
|  \\    /   O peration     | Version:  4.1                                   |
|   \\  /    A nd           | Web:      www.OpenFOAM.org                      |
|    \\/     M anipulation  |                                                 |
\*---------------------------------------------------------------------------*/
FoamFile
{
    version     2.0;
    format      ascii;
    class       volVectorField;
    location    "0.2";
    object      U;
}
// * * * * * * * * * * * * * * * * * * * * * * * * * * * * * * * * * * * * * //

dimensions      [0 1 -1 0 0 0 0];

internalField   nonuniform List<vector> 
12013
(
(0.0999331 2.0364e-05 0)
(0.0996276 3.36664e-05 0)
(0.0992508 3.14282e-05 0)
(0.0989796 2.20626e-05 0)
(0.0988072 1.52308e-05 0)
(0.098679 1.29531e-05 0)
(0.0985567 1.34385e-05 0)
(0.0984249 1.48487e-05 0)
(0.0982819 1.62653e-05 0)
(0.0981301 1.7433e-05 0)
(0.0979723 1.83712e-05 0)
(0.0978104 1.91632e-05 0)
(0.0976455 1.98808e-05 0)
(0.0974781 2.0569e-05 0)
(0.0973086 2.1254e-05 0)
(0.097137 2.19481e-05 0)
(0.0969633 2.26575e-05 0)
(0.0967877 2.33851e-05 0)
(0.0966101 2.41314e-05 0)
(0.0964304 2.48939e-05 0)
(0.0962489 2.5669e-05 0)
(0.0960655 2.64503e-05 0)
(0.0958804 2.723e-05 0)
(0.0956938 2.8001e-05 0)
(0.0955059 2.87555e-05 0)
(0.095317 2.94874e-05 0)
(0.0951274 3.0191e-05 0)
(0.0949374 3.08621e-05 0)
(0.0947473 3.1498e-05 0)
(0.0945574 3.20975e-05 0)
(0.094368 3.26619e-05 0)
(0.0941795 3.31943e-05 0)
(0.0939921 3.36991e-05 0)
(0.0938059 3.41815e-05 0)
(0.0936212 3.46488e-05 0)
(0.093438 3.51087e-05 0)
(0.0932565 3.55693e-05 0)
(0.0930766 3.60383e-05 0)
(0.0928985 3.65249e-05 0)
(0.0927219 3.70364e-05 0)
(0.0925469 3.75808e-05 0)
(0.0923734 3.8167e-05 0)
(0.0922011 3.88012e-05 0)
(0.09203 3.94913e-05 0)
(0.0918598 4.02429e-05 0)
(0.0916904 4.10613e-05 0)
(0.0915216 4.19523e-05 0)
(0.0913532 4.29216e-05 0)
(0.0911849 4.39759e-05 0)
(0.0910165 4.51215e-05 0)
(0.0908478 4.6368e-05 0)
(0.0906785 4.77278e-05 0)
(0.0905083 4.92164e-05 0)
(0.0903369 5.08555e-05 0)
(0.0901638 5.2674e-05 0)
(0.0899885 5.47106e-05 0)
(0.0898104 5.70159e-05 0)
(0.0896287 5.96555e-05 0)
(0.0894425 6.27148e-05 0)
(0.0892505 6.63038e-05 0)
(0.0890512 7.05647e-05 0)
(0.0888426 7.56809e-05 0)
(0.0886223 8.18936e-05 0)
(0.0883871 8.95189e-05 0)
(0.0881333 9.89754e-05 0)
(0.0878556 0.000110826 0)
(0.0875475 0.000125837 0)
(0.0872005 0.000145066 0)
(0.0868033 0.000169997 0)
(0.0863409 0.000202758 0)
(0.0857926 0.000246451 0)
(0.0851303 0.000305701 0)
(0.0843139 0.000387547 0)
(0.0832861 0.00050292 0)
(0.0819628 0.000669147 0)
(0.0802195 0.000914187 0)
(0.0778668 0.00128395 0)
(0.0746004 0.0018572 0)
(0.0699416 0.00279159 0)
(0.0633128 0.00452232 0)
(0.0557605 0.00899405 0)
(0.0999393 6.18241e-05 0)
(0.0996411 0.000102776 0)
(0.0992697 9.62676e-05 0)
(0.0989987 6.78206e-05 0)
(0.098824 4.69688e-05 0)
(0.0986933 3.99627e-05 0)
(0.0985691 4.13877e-05 0)
(0.0984363 4.56511e-05 0)
(0.0982928 4.99527e-05 0)
(0.0981411 5.35067e-05 0)
(0.0979835 5.63681e-05 0)
(0.097822 5.87879e-05 0)
(0.0976575 6.09823e-05 0)
(0.0974907 6.30894e-05 0)
(0.0973217 6.51867e-05 0)
(0.0971506 6.73127e-05 0)
(0.0969776 6.94853e-05 0)
(0.0968026 7.1714e-05 0)
(0.0966256 7.39998e-05 0)
(0.0964467 7.63358e-05 0)
(0.0962658 7.871e-05 0)
(0.0960832 8.11033e-05 0)
(0.0958989 8.34928e-05 0)
(0.0957131 8.58549e-05 0)
(0.095526 8.81679e-05 0)
(0.0953378 9.04122e-05 0)
(0.095149 9.25713e-05 0)
(0.0949598 9.46313e-05 0)
(0.0947704 9.65829e-05 0)
(0.0945813 9.84235e-05 0)
(0.0943927 0.000100158 0)
(0.0942048 0.000101796 0)
(0.0940181 0.000103349 0)
(0.0938325 0.000104835 0)
(0.0936484 0.000106273 0)
(0.0934657 0.000107689 0)
(0.0932847 0.000109109 0)
(0.0931053 0.000110556 0)
(0.0929275 0.000112055 0)
(0.0927514 0.00011363 0)
(0.0925767 0.000115307 0)
(0.0924034 0.000117111 0)
(0.0922314 0.000119063 0)
(0.0920605 0.000121185 0)
(0.0918906 0.000123496 0)
(0.0917214 0.000126013 0)
(0.0915528 0.000128751 0)
(0.0913845 0.000131728 0)
(0.0912164 0.000134964 0)
(0.0910482 0.000138481 0)
(0.0908796 0.000142307 0)
(0.0907105 0.000146478 0)
(0.0905405 0.000151043 0)
(0.0903693 0.000156067 0)
(0.0901965 0.000161638 0)
(0.0900215 0.000167874 0)
(0.0898439 0.000174927 0)
(0.0896627 0.000182999 0)
(0.0894771 0.000192346 0)
(0.089286 0.000203299 0)
(0.0890877 0.00021629 0)
(0.0888806 0.000231871 0)
(0.0886622 0.000250764 0)
(0.0884297 0.000273916 0)
(0.0881794 0.000302578 0)
(0.0879065 0.000338422 0)
(0.0876051 0.000383712 0)
(0.0872674 0.000441556 0)
(0.0868834 0.000516286 0)
(0.08644 0.00061405 0)
(0.0859196 0.00074372 0)
(0.0852988 0.000918344 0)
(0.084546 0.00115744 0)
(0.0836177 0.00149068 0)
(0.0824542 0.00196371 0)
(0.0809747 0.00264723 0)
(0.0790709 0.00364983 0)
(0.0765969 0.00513524 0)
(0.0733874 0.00734387 0)
(0.0694878 0.0105556 0)
(0.0662015 0.0146483 0)
(0.0999471 0.000103397 0)
(0.0996679 0.000174272 0)
(0.0993104 0.000164612 0)
(0.0990405 0.000117164 0)
(0.0988604 8.18584e-05 0)
(0.0987237 6.97095e-05 0)
(0.0985952 7.18421e-05 0)
(0.0984602 7.88779e-05 0)
(0.098316 8.60701e-05 0)
(0.0981643 9.20567e-05 0)
(0.0980073 9.69048e-05 0)
(0.0978465 0.000101023 0)
(0.0976831 0.000104769 0)
(0.0975173 0.000108371 0)
(0.0973494 0.00011196 0)
(0.0971796 0.000115599 0)
(0.0970078 0.000119319 0)
(0.0968342 0.000123134 0)
(0.0966586 0.000127048 0)
(0.0964812 0.000131048 0)
(0.0963019 0.000135114 0)
(0.0961208 0.000139213 0)
(0.0959381 0.000143307 0)
(0.095754 0.000147357 0)
(0.0955686 0.000151325 0)
(0.0953822 0.000155178 0)
(0.0951951 0.000158887 0)
(0.0950076 0.00016243 0)
(0.0948199 0.00016579 0)
(0.0946324 0.000168964 0)
(0.0944454 0.000171959 0)
(0.0942591 0.000174791 0)
(0.0940737 0.00017748 0)
(0.0938895 0.000180055 0)
(0.0937066 0.000182553 0)
(0.0935252 0.000185013 0)
(0.0933453 0.000187479 0)
(0.0931669 0.000189992 0)
(0.0929901 0.000192595 0)
(0.0928148 0.000195329 0)
(0.0926409 0.000198238 0)
(0.0924683 0.000201363 0)
(0.092297 0.000204741 0)
(0.0921267 0.000208409 0)
(0.0919573 0.000212398 0)
(0.0917887 0.000216738 0)
(0.0916206 0.000221456 0)
(0.0914529 0.000226581 0)
(0.0912853 0.000232146 0)
(0.0911177 0.00023819 0)
(0.0909498 0.00024476 0)
(0.0907814 0.000251915 0)
(0.0906121 0.000259739 0)
(0.0904417 0.000268342 0)
(0.0902698 0.000277873 0)
(0.090096 0.000288527 0)
(0.0899195 0.000300564 0)
(0.0897399 0.000314317 0)
(0.0895561 0.000330214 0)
(0.0893671 0.000348809 0)
(0.0891715 0.000370812 0)
(0.0889677 0.000397139 0)
(0.0887535 0.000428974 0)
(0.0885264 0.000467858 0)
(0.0882831 0.000515819 0)
(0.0880196 0.000575539 0)
(0.0877308 0.000650613 0)
(0.0874103 0.000745912 0)
(0.0870501 0.000868128 0)
(0.0866401 0.00102657 0)
(0.0861676 0.00123439 0)
(0.0856167 0.00151036 0)
(0.0849676 0.00188166 0)
(0.0841964 0.0023878 0)
(0.0832756 0.00308624 0)
(0.0821775 0.00405933 0)
(0.0808821 0.00542029 0)
(0.0793939 0.00731166 0)
(0.0777853 0.00988051 0)
(0.0763284 0.0131543 0)
(0.0757372 0.016544 0)
(0.0999565 0.000143031 0)
(0.0997069 0.00024596 0)
(0.0993715 0.000235498 0)
(0.0991041 0.00017058 0)
(0.0989162 0.000120952 0)
(0.0987704 0.000103151 0)
(0.0986356 0.000105459 0)
(0.0984973 0.000114921 0)
(0.0983519 0.000124836 0)
(0.0982004 0.000133203 0)
(0.0980443 0.000140049 0)
(0.0978848 0.000145906 0)
(0.0977228 0.000151259 0)
(0.0975587 0.000156421 0)
(0.0973927 0.000161568 0)
(0.0972247 0.00016679 0)
(0.097055 0.00017213 0)
(0.0968835 0.000177608 0)
(0.0967101 0.000183226 0)
(0.096535 0.00018897 0)
(0.0963581 0.000194808 0)
(0.0961795 0.000200697 0)
(0.0959994 0.000206581 0)
(0.0958179 0.000212406 0)
(0.0956351 0.00021812 0)
(0.0954515 0.000223674 0)
(0.095267 0.000229028 0)
(0.0950822 0.000234149 0)
(0.0948971 0.000239018 0)
(0.0947122 0.000243626 0)
(0.0945277 0.000247983 0)
(0.0943438 0.000252112 0)
(0.0941607 0.00025604 0)
(0.0939787 0.000259811 0)
(0.0937979 0.000263474 0)
(0.0936183 0.000267087 0)
(0.0934402 0.000270708 0)
(0.0932635 0.000274398 0)
(0.0930882 0.000278216 0)
(0.0929143 0.000282223 0)
(0.0927417 0.00028648 0)
(0.0925704 0.000291043 0)
(0.0924002 0.000295967 0)
(0.0922311 0.000301303 0)
(0.0920628 0.000307096 0)
(0.0918952 0.000313385 0)
(0.0917282 0.00032021 0)
(0.0915615 0.000327613 0)
(0.0913951 0.000335642 0)
(0.0912287 0.000344347 0)
(0.0910621 0.000353796 0)
(0.0908951 0.000364074 0)
(0.0907274 0.000375297 0)
(0.0905587 0.00038762 0)
(0.0903888 0.00040125 0)
(0.0902171 0.000416463 0)
(0.0900433 0.000433616 0)
(0.0898665 0.000453171 0)
(0.0896862 0.000475722 0)
(0.0895013 0.000502028 0)
(0.0893106 0.00053306 0)
(0.0891127 0.000570058 0)
(0.0889059 0.000614618 0)
(0.0886881 0.000668798 0)
(0.0884565 0.000735272 0)
(0.0882081 0.000817535 0)
(0.087939 0.000920199 0)
(0.0876447 0.0010494 0)
(0.0873199 0.00121338 0)
(0.0869582 0.00142332 0)
(0.0865527 0.00169446 0)
(0.0860959 0.00204781 0)
(0.0855809 0.00251226 0)
(0.0850029 0.00312743 0)
(0.084363 0.00394668 0)
(0.0836751 0.00503901 0)
(0.0829767 0.00648575 0)
(0.0823466 0.0083637 0)
(0.081929 0.010698 0)
(0.0819598 0.0133454 0)
(0.0827264 0.0157367 0)
(0.0999669 0.000178899 0)
(0.0997544 0.000315342 0)
(0.0994482 0.000307756 0)
(0.0991855 0.000228406 0)
(0.0989888 0.000165256 0)
(0.098832 0.000141261 0)
(0.0986894 0.000142925 0)
(0.0985469 0.00015419 0)
(0.0984002 0.00016647 0)
(0.0982489 0.000177054 0)
(0.098094 0.000185844 0)
(0.0979362 0.000193445 0)
(0.0977763 0.000200438 0)
(0.0976145 0.000207203 0)
(0.0974508 0.000213961 0)
(0.0972855 0.000220824 0)
(0.0971185 0.000227842 0)
(0.0969498 0.000235043 0)
(0.0967794 0.000242429 0)
(0.0966074 0.00024998 0)
(0.0964337 0.000257657 0)
(0.0962585 0.000265405 0)
(0.0960819 0.000273152 0)
(0.0959039 0.000280831 0)
(0.0957248 0.000288371 0)
(0.0955447 0.000295713 0)
(0.0953639 0.000302804 0)
(0.0951827 0.000309603 0)
(0.0950013 0.000316083 0)
(0.0948198 0.000322234 0)
(0.0946387 0.000328069 0)
(0.094458 0.000333612 0)
(0.0942781 0.000338903 0)
(0.094099 0.000343996 0)
(0.093921 0.000348953 0)
(0.0937441 0.000353848 0)
(0.0935684 0.000358755 0)
(0.093394 0.000363753 0)
(0.0932208 0.00036892 0)
(0.0930489 0.000374332 0)
(0.0928783 0.000380067 0)
(0.0927087 0.000386198 0)
(0.0925403 0.000392797 0)
(0.0923727 0.000399926 0)
(0.0922061 0.000407642 0)
(0.0920401 0.000415997 0)
(0.0918748 0.000425043 0)
(0.0917099 0.000434833 0)
(0.0915452 0.000445424 0)
(0.0913808 0.000456885 0)
(0.0912163 0.000469298 0)
(0.0910515 0.000482775 0)
(0.0908864 0.000497461 0)
(0.0907206 0.000513554 0)
(0.0905539 0.000531317 0)
(0.0903858 0.000551096 0)
(0.090216 0.00057334 0)
(0.090044 0.000598627 0)
(0.0898691 0.000627693 0)
(0.0896906 0.000661477 0)
(0.0895075 0.000701167 0)
(0.0893187 0.000748267 0)
(0.0891229 0.000804695 0)
(0.0889186 0.000872891 0)
(0.0887039 0.000955978 0)
(0.0884768 0.00105797 0)
(0.0882349 0.00118406 0)
(0.0879759 0.00134098 0)
(0.0876971 0.00153751 0)
(0.0873965 0.00178516 0)
(0.0870725 0.00209901 0)
(0.0867255 0.00249874 0)
(0.0863593 0.00300991 0)
(0.0859836 0.00366496 0)
(0.0856179 0.00450353 0)
(0.085298 0.00557036 0)
(0.0850833 0.00690733 0)
(0.0850654 0.00853392 0)
(0.0853709 0.0104075 0)
(0.0861459 0.0123548 0)
(0.0874789 0.0139842 0)
(0.0999775 0.000209474 0)
(0.0998052 0.000380121 0)
(0.0995328 0.000380121 0)
(0.0992778 0.000290654 0)
(0.099073 0.000215483 0)
(0.0989051 0.000184837 0)
(0.0987541 0.000184846 0)
(0.0986071 0.000197063 0)
(0.0984589 0.000211178 0)
(0.0983081 0.000223702 0)
(0.0981547 0.000234316 0)
(0.0979991 0.000243624 0)
(0.0978417 0.000252261 0)
(0.0976827 0.000260655 0)
(0.097522 0.000269059 0)
(0.0973599 0.000277601 0)
(0.0971962 0.000286341 0)
(0.0970311 0.00029531 0)
(0.0968644 0.00030451 0)
(0.0966962 0.000313917 0)
(0.0965265 0.000323485 0)
(0.0963554 0.000333146 0)
(0.096183 0.000342816 0)
(0.0960094 0.000352413 0)
(0.0958347 0.000361853 0)
(0.0956591 0.000371064 0)
(0.0954828 0.000379981 0)
(0.095306 0.000388556 0)
(0.0951289 0.000396756 0)
(0.0949518 0.000404568 0)
(0.0947748 0.000412006 0)
(0.0945982 0.000419099 0)
(0.0944222 0.000425894 0)
(0.0942468 0.000432455 0)
(0.0940722 0.000438858 0)
(0.0938986 0.000445188 0)
(0.093726 0.000451536 0)
(0.0935545 0.000457997 0)
(0.0933841 0.000464663 0)
(0.0932148 0.000471629 0)
(0.0930466 0.000478987 0)
(0.0928794 0.000486826 0)
(0.0927131 0.00049523 0)
(0.0925478 0.000504274 0)
(0.0923834 0.000514026 0)
(0.0922197 0.000524547 0)
(0.0920566 0.0005359 0)
(0.0918941 0.000548147 0)
(0.091732 0.000561356 0)
(0.0915702 0.000575607 0)
(0.0914087 0.000591 0)
(0.0912473 0.000607664 0)
(0.0910857 0.000625775 0)
(0.090924 0.000645565 0)
(0.0907617 0.000667344 0)
(0.0905988 0.000691519 0)
(0.0904348 0.000718613 0)
(0.0902693 0.000749297 0)
(0.0901021 0.00078442 0)
(0.0899324 0.000825052 0)
(0.0897597 0.000872534 0)
(0.0895833 0.000928549 0)
(0.0894023 0.000995206 0)
(0.0892159 0.00107515 0)
(0.0890231 0.0011717 0)
(0.0888231 0.00128902 0)
(0.0886152 0.00143238 0)
(0.0883989 0.00160838 0)
(0.0881744 0.00182533 0)
(0.0879432 0.00209366 0)
(0.0877084 0.00242631 0)
(0.0874762 0.00283919 0)
(0.0872572 0.00335135 0)
(0.087069 0.00398472 0)
(0.0869388 0.00476268 0)
(0.0869073 0.00570636 0)
(0.0870317 0.00682674 0)
(0.0873865 0.00811 0)
(0.0880572 0.00949428 0)
(0.0891171 0.0108401 0)
(0.0905757 0.0119122 0)
(0.099987 0.000233866 0)
(0.0998541 0.000438621 0)
(0.0996174 0.000451377 0)
(0.0993732 0.000356944 0)
(0.099163 0.000271885 0)
(0.0989854 0.00023436 0)
(0.0988265 0.000231667 0)
(0.0986754 0.000243859 0)
(0.0985258 0.000259155 0)
(0.0983756 0.000273251 0)
(0.098224 0.000285505 0)
(0.0980709 0.000296442 0)
(0.0979165 0.000306698 0)
(0.0977607 0.000316723 0)
(0.0976035 0.000326788 0)
(0.0974451 0.000337032 0)
(0.0972853 0.000347521 0)
(0.0971242 0.000358288 0)
(0.0969617 0.000369334 0)
(0.096798 0.00038063 0)
(0.0966329 0.000392124 0)
(0.0964665 0.000403737 0)
(0.096299 0.000415376 0)
(0.0961303 0.000426944 0)
(0.0959607 0.000438347 0)
(0.0957902 0.0004495 0)
(0.095619 0.000460329 0)
(0.0954474 0.000470779 0)
(0.0952754 0.00048081 0)
(0.0951032 0.000490409 0)
(0.0949311 0.000499586 0)
(0.0947591 0.000508377 0)
(0.0945876 0.000516834 0)
(0.0944165 0.000525028 0)
(0.094246 0.000533046 0)
(0.0940763 0.000540985 0)
(0.0939074 0.000548949 0)
(0.0937393 0.000557044 0)
(0.0935722 0.000565379 0)
(0.093406 0.00057406 0)
(0.0932407 0.000583195 0)
(0.0930764 0.000592884 0)
(0.092913 0.000603221 0)
(0.0927505 0.000614292 0)
(0.0925889 0.000626173 0)
(0.092428 0.000638933 0)
(0.0922679 0.000652643 0)
(0.0921084 0.000667371 0)
(0.0919497 0.000683192 0)
(0.0917915 0.000700196 0)
(0.0916338 0.000718492 0)
(0.0914767 0.000738227 0)
(0.0913198 0.000759595 0)
(0.0911633 0.000782855 0)
(0.0910069 0.000808353 0)
(0.0908505 0.000836535 0)
(0.090694 0.000867978 0)
(0.0905371 0.000903411 0)
(0.0903796 0.00094375 0)
(0.0902212 0.000990137 0)
(0.0900617 0.00104398 0)
(0.0899007 0.00110704 0)
(0.0897379 0.00118145 0)
(0.0895734 0.00126985 0)
(0.0894069 0.00137549 0)
(0.0892388 0.00150231 0)
(0.0890698 0.00165515 0)
(0.0889013 0.00183983 0)
(0.0887357 0.00206336 0)
(0.0885771 0.00233406 0)
(0.0884316 0.00266159 0)
(0.0883085 0.00305687 0)
(0.0882217 0.0035316 0)
(0.0881906 0.00409735 0)
(0.0882419 0.00476353 0)
(0.0884111 0.00553405 0)
(0.088742 0.0064016 0)
(0.0892846 0.00733937 0)
(0.0900869 0.00829064 0)
(0.0911781 0.00915993 0)
(0.0925415 0.00981565 0)
(0.0999948 0.000251967 0)
(0.0998969 0.000489985 0)
(0.0996951 0.000520485 0)
(0.0994647 0.000426517 0)
(0.0992529 0.000334196 0)
(0.0990683 0.000289916 0)
(0.0989032 0.000283612 0)
(0.0987486 0.000294802 0)
(0.0985982 0.00031057 0)
(0.0984488 0.000325808 0)
(0.0982993 0.00033947 0)
(0.098149 0.000351917 0)
(0.0979978 0.000363738 0)
(0.0978456 0.000375373 0)
(0.0976923 0.000387096 0)
(0.097538 0.000399048 0)
(0.0973825 0.000411298 0)
(0.0972259 0.000423877 0)
(0.0970681 0.000436785 0)
(0.0969092 0.00044999 0)
(0.0967491 0.000463432 0)
(0.0965879 0.000477025 0)
(0.0964257 0.000490666 0)
(0.0962625 0.000504248 0)
(0.0960984 0.000517666 0)
(0.0959335 0.000530827 0)
(0.0957679 0.000543649 0)
(0.0956018 0.000556069 0)
(0.0954354 0.000568044 0)
(0.0952687 0.000579556 0)
(0.0951018 0.000590616 0)
(0.0949351 0.000601261 0)
(0.0947685 0.000611548 0)
(0.0946022 0.000621553 0)
(0.0944363 0.00063137 0)
(0.0942709 0.000641104 0)
(0.0941062 0.000650869 0)
(0.0939421 0.000660782 0)
(0.0937788 0.000670962 0)
(0.0936162 0.000681526 0)
(0.0934545 0.000692591 0)
(0.0932936 0.000704266 0)
(0.0931336 0.000716654 0)
(0.0929745 0.000729844 0)
(0.0928162 0.000743919 0)
(0.0926589 0.000758956 0)
(0.0925024 0.000775024 0)
(0.0923469 0.000792197 0)
(0.0921922 0.000810553 0)
(0.0920385 0.000830183 0)
(0.0918856 0.000851203 0)
(0.0917337 0.000873766 0)
(0.0915827 0.000898074 0)
(0.0914327 0.000924403 0)
(0.0912835 0.000953112 0)
(0.0911352 0.000984667 0)
(0.0909878 0.00101966 0)
(0.0908412 0.00105885 0)
(0.0906955 0.00110315 0)
(0.0905506 0.0011537 0)
(0.0904067 0.00121191 0)
(0.0902638 0.00127944 0)
(0.0901223 0.00135833 0)
(0.0899827 0.001451 0)
(0.0898458 0.00156035 0)
(0.0897128 0.00168979 0)
(0.0895855 0.0018433 0)
(0.0894667 0.00202548 0)
(0.0893604 0.00224152 0)
(0.0892719 0.00249716 0)
(0.0892089 0.00279843 0)
(0.0891817 0.00315133 0)
(0.0892038 0.00356107 0)
(0.0892927 0.00403105 0)
(0.0894703 0.00456114 0)
(0.0897627 0.00514535 0)
(0.0901985 0.0057687 0)
(0.0908065 0.00640361 0)
(0.0916089 0.00700667 0)
(0.0926119 0.0075182 0)
(0.093794 0.0078683 0)
(0.1 0.000264325 0)
(0.0999315 0.000534107 0)
(0.0997619 0.000586658 0)
(0.0995476 0.000498364 0)
(0.0993383 0.000401702 0)
(0.0991501 0.000351194 0)
(0.0989811 0.000340641 0)
(0.0988242 0.000349968 0)
(0.0986735 0.000365517 0)
(0.0985254 0.000381444 0)
(0.0983782 0.000396246 0)
(0.0982309 0.000410055 0)
(0.0980832 0.00042336 0)
(0.0979349 0.000436562 0)
(0.0977858 0.000449921 0)
(0.0976358 0.000463572 0)
(0.0974849 0.00047758 0)
(0.0973331 0.000491975 0)
(0.0971803 0.000506751 0)
(0.0970265 0.000521872 0)
(0.0968718 0.000537274 0)
(0.0967161 0.000552864 0)
(0.0965595 0.00056853 0)
(0.096402 0.00058416 0)
(0.0962437 0.00059964 0)
(0.0960847 0.000614868 0)
(0.0959251 0.000629759 0)
(0.0957649 0.000644242 0)
(0.0956042 0.00065827 0)
(0.0954433 0.000671824 0)
(0.0952821 0.000684913 0)
(0.0951209 0.000697572 0)
(0.0949596 0.000709861 0)
(0.0947985 0.000721859 0)
(0.0946376 0.000733663 0)
(0.094477 0.000745384 0)
(0.0943169 0.000757141 0)
(0.0941572 0.000769057 0)
(0.0939982 0.000781255 0)
(0.0938398 0.000793863 0)
(0.0936821 0.000806999 0)
(0.0935252 0.00082078 0)
(0.0933692 0.000835309 0)
(0.0932141 0.000850681 0)
(0.09306 0.000866979 0)
(0.0929068 0.000884277 0)
(0.0927548 0.000902648 0)
(0.0926039 0.000922159 0)
(0.0924542 0.000942885 0)
(0.0923058 0.000964914 0)
(0.0921588 0.000988358 0)
(0.0920132 0.00101336 0)
(0.0918692 0.00104013 0)
(0.0917268 0.00106893 0)
(0.0915862 0.00110012 0)
(0.0914474 0.00113414 0)
(0.0913106 0.00117159 0)
(0.0911761 0.00121316 0)
(0.091044 0.00125975 0)
(0.0909146 0.00131242 0)
(0.0907883 0.00137242 0)
(0.0906657 0.00144127 0)
(0.0905476 0.00152071 0)
(0.090435 0.0016128 0)
(0.0903294 0.00171985 0)
(0.0902326 0.0018445 0)
(0.0901474 0.00198966 0)
(0.0900772 0.00215846 0)
(0.0900266 0.00235414 0)
(0.0900016 0.00257987 0)
(0.0900096 0.00283842 0)
(0.0900601 0.00313173 0)
(0.0901647 0.00346024 0)
(0.0903372 0.00382207 0)
(0.090593 0.00421189 0)
(0.090949 0.00461967 0)
(0.0914216 0.00502946 0)
(0.0920245 0.00541836 0)
(0.0927649 0.00575659 0)
(0.0936392 0.00600922 0)
(0.094628 0.00614098 0)
(0.100004 0.000271881 0)
(0.0999574 0.000571439 0)
(0.0998161 0.000649401 0)
(0.0996194 0.000571418 0)
(0.0994162 0.000473415 0)
(0.0992282 0.000417588 0)
(0.0990577 0.000402488 0)
(0.0988999 0.000409289 0)
(0.0987497 0.000424011 0)
(0.0986033 0.000440188 0)
(0.0984587 0.000455847 0)
(0.0983147 0.000470846 0)
(0.0981708 0.000485533 0)
(0.0980265 0.000500241 0)
(0.0978818 0.000515197 0)
(0.0977364 0.000530523 0)
(0.0975904 0.000546277 0)
(0.0974436 0.000562479 0)
(0.0972959 0.000579121 0)
(0.0971475 0.00059616 0)
(0.0969983 0.000613528 0)
(0.0968482 0.000631124 0)
(0.0966974 0.000648834 0)
(0.0965458 0.00066654 0)
(0.0963935 0.000684122 0)
(0.0962405 0.000701474 0)
(0.0960869 0.000718503 0)
(0.0959328 0.000735139 0)
(0.0957782 0.000751329 0)
(0.0956232 0.00076705 0)
(0.0954679 0.00078231 0)
(0.0953124 0.000797142 0)
(0.0951567 0.000811604 0)
(0.0950011 0.000825774 0)
(0.0948455 0.000839751 0)
(0.09469 0.000853644 0)
(0.0945349 0.000867573 0)
(0.0943801 0.000881663 0)
(0.0942258 0.000896039 0)
(0.094072 0.000910828 0)
(0.093919 0.000926153 0)
(0.0937667 0.000942127 0)
(0.0936153 0.000958854 0)
(0.0934649 0.000976424 0)
(0.0933155 0.000994917 0)
(0.0931674 0.0010144 0)
(0.0930206 0.00103494 0)
(0.0928752 0.0010566 0)
(0.0927314 0.00107943 0)
(0.0925893 0.00110352 0)
(0.0924491 0.00112895 0)
(0.092311 0.00115586 0)
(0.092175 0.00118442 0)
(0.0920415 0.00121489 0)
(0.0919107 0.00124758 0)
(0.0917828 0.0012829 0)
(0.0916582 0.00132138 0)
(0.0915371 0.00136365 0)
(0.0914201 0.00141048 0)
(0.0913078 0.00146277 0)
(0.0912007 0.00152159 0)
(0.0910998 0.00158814 0)
(0.0910062 0.0016638 0)
(0.0909214 0.00175009 0)
(0.0908473 0.00184866 0)
(0.0907862 0.00196124 0)
(0.090741 0.0020896 0)
(0.0907155 0.00223542 0)
(0.0907142 0.00240015 0)
(0.0907427 0.00258478 0)
(0.0908075 0.00278955 0)
(0.0909165 0.00301358 0)
(0.0910783 0.0032544 0)
(0.0913026 0.0035074 0)
(0.0915991 0.0037653 0)
(0.0919775 0.00401773 0)
(0.0924456 0.00425097 0)
(0.0930083 0.00444821 0)
(0.0936653 0.00459058 0)
(0.0944098 0.00465897 0)
(0.0952263 0.00463702 0)
(0.100006 0.000275734 0)
(0.0999755 0.000602796 0)
(0.0998583 0.000708503 0)
(0.0996795 0.000644697 0)
(0.0994854 0.00054825 0)
(0.0993008 0.000488322 0)
(0.0991312 0.00046873 0)
(0.0989741 0.000472588 0)
(0.0988252 0.000485999 0)
(0.0986811 0.000502034 0)
(0.0985394 0.000518273 0)
(0.098399 0.00053428 0)
(0.0982589 0.000550229 0)
(0.098119 0.000566365 0)
(0.0979787 0.000582868 0)
(0.0978382 0.000599837 0)
(0.0976971 0.000617314 0)
(0.0975554 0.000635311 0)
(0.0974131 0.00065381 0)
(0.0972701 0.000672765 0)
(0.0971265 0.000692099 0)
(0.0969822 0.000711709 0)
(0.0968372 0.000731478 0)
(0.0966916 0.000751284 0)
(0.0965453 0.000771004 0)
(0.0963984 0.00079053 0)
(0.0962509 0.000809767 0)
(0.0961029 0.000828638 0)
(0.0959544 0.000847092 0)
(0.0958054 0.000865101 0)
(0.0956561 0.000882668 0)
(0.0955065 0.000899823 0)
(0.0953566 0.000916617 0)
(0.0952066 0.000933125 0)
(0.0950566 0.000949441 0)
(0.0949066 0.000965672 0)
(0.0947568 0.000981931 0)
(0.0946072 0.000998339 0)
(0.0944581 0.00101502 0)
(0.0943096 0.0010321 0)
(0.0941617 0.00104969 0)
(0.0940146 0.0010679 0)
(0.0938685 0.00108682 0)
(0.0937235 0.00110655 0)
(0.0935797 0.00112715 0)
(0.0934373 0.00114867 0)
(0.0932966 0.00117116 0)
(0.0931576 0.00119466 0)
(0.0930206 0.00121922 0)
(0.0928859 0.00124488 0)
(0.0927535 0.00127171 0)
(0.0926238 0.00129981 0)
(0.0924971 0.00132932 0)
(0.0923737 0.00136044 0)
(0.0922539 0.00139343 0)
(0.0921381 0.00142863 0)
(0.0920268 0.00146645 0)
(0.0919205 0.00150742 0)
(0.0918198 0.00155212 0)
(0.0917254 0.00160126 0)
(0.0916384 0.00165561 0)
(0.0915597 0.00171604 0)
(0.0914909 0.00178345 0)
(0.0914335 0.00185879 0)
(0.0913896 0.001943 0)
(0.0913617 0.00203693 0)
(0.0913526 0.00214128 0)
(0.0913659 0.00225649 0)
(0.0914056 0.00238255 0)
(0.0914764 0.00251887 0)
(0.0915835 0.00266401 0)
(0.0917326 0.00281547 0)
(0.0919296 0.00296937 0)
(0.0921806 0.00312025 0)
(0.0924911 0.00326089 0)
(0.0928657 0.0033823 0)
(0.093307 0.00347404 0)
(0.0938154 0.00352479 0)
(0.0943877 0.00352347 0)
(0.0950167 0.00346063 0)
(0.0956909 0.00333014 0)
(0.100006 0.000276956 0)
(0.0999873 0.000629163 0)
(0.0998898 0.000763986 0)
(0.0997285 0.000717385 0)
(0.0995456 0.000625154 0)
(0.0993669 0.000562547 0)
(0.0992005 0.000538836 0)
(0.0990456 0.000539589 0)
(0.098899 0.000551357 0)
(0.0987576 0.000566927 0)
(0.0986193 0.000583494 0)
(0.0984825 0.000600326 0)
(0.0983466 0.00061741 0)
(0.0982111 0.000634888 0)
(0.0980755 0.000652879 0)
(0.0979398 0.00067145 0)
(0.0978038 0.000690625 0)
(0.0976673 0.0007104 0)
(0.0975304 0.000730747 0)
(0.097393 0.000751612 0)
(0.097255 0.000772913 0)
(0.0971164 0.000794544 0)
(0.0969773 0.000816386 0)
(0.0968376 0.000838315 0)
(0.0966973 0.00086021 0)
(0.0965565 0.00088196 0)
(0.0964151 0.000903466 0)
(0.0962732 0.000924652 0)
(0.0961308 0.000945462 0)
(0.0959879 0.000965866 0)
(0.0958446 0.000985861 0)
(0.095701 0.00100547 0)
(0.095557 0.00102473 0)
(0.0954129 0.00104372 0)
(0.0952686 0.00106251 0)
(0.0951244 0.00108121 0)
(0.0949803 0.00109992 0)
(0.0948364 0.00111875 0)
(0.094693 0.00113782 0)
(0.0945501 0.00115724 0)
(0.094408 0.00117711 0)
(0.0942667 0.00119754 0)
(0.0941266 0.0012186 0)
(0.0939877 0.00124037 0)
(0.0938502 0.00126289 0)
(0.0937145 0.00128619 0)
(0.0935807 0.00131031 0)
(0.093449 0.00133525 0)
(0.0933198 0.00136103 0)
(0.0931933 0.00138764 0)
(0.0930698 0.00141513 0)
(0.0929497 0.00144354 0)
(0.0928332 0.00147296 0)
(0.0927209 0.00150352 0)
(0.0926132 0.00153539 0)
(0.0925105 0.00156881 0)
(0.0924135 0.00160406 0)
(0.0923227 0.00164151 0)
(0.0922389 0.00168154 0)
(0.0921631 0.00172458 0)
(0.0920962 0.00177112 0)
(0.0920396 0.00182161 0)
(0.0919946 0.00187649 0)
(0.091963 0.00193616 0)
(0.0919468 0.00200087 0)
(0.0919483 0.00207071 0)
(0.0919701 0.00214552 0)
(0.0920152 0.00222476 0)
(0.0920869 0.00230745 0)
(0.0921887 0.00239197 0)
(0.0923244 0.002476 0)
(0.0924978 0.00255632 0)
(0.0927127 0.00262876 0)
(0.0929721 0.00268807 0)
(0.0932788 0.00272806 0)
(0.0936343 0.00274173 0)
(0.0940386 0.00272171 0)
(0.0944899 0.00266096 0)
(0.0949843 0.0025536 0)
(0.0955158 0.00239596 0)
(0.096076 0.00218742 0)
(0.100006 0.000276483 0)
(0.0999943 0.000651567 0)
(0.0999127 0.000816056 0)
(0.0997678 0.000788884 0)
(0.0995971 0.000703199 0)
(0.0994264 0.000639424 0)
(0.0992649 0.000612223 0)
(0.0991136 0.000609942 0)
(0.0989702 0.00061989 0)
(0.0988322 0.000634761 0)
(0.0986975 0.000651442 0)
(0.0985647 0.000668928 0)
(0.0984331 0.000687021 0)
(0.0983021 0.00070575 0)
(0.0981714 0.000725167 0)
(0.0980406 0.000745296 0)
(0.0979097 0.000766138 0)
(0.0977786 0.000787672 0)
(0.0976471 0.000809855 0)
(0.0975151 0.000832625 0)
(0.0973828 0.000855895 0)
(0.09725 0.000879555 0)
(0.0971166 0.000903486 0)
(0.0969828 0.000927564 0)
(0.0968485 0.000951669 0)
(0.0967137 0.000975689 0)
(0.0965784 0.000999524 0)
(0.0964426 0.0010231 0)
(0.0963062 0.00104634 0)
(0.0961694 0.00106923 0)
(0.0960322 0.00109175 0)
(0.0958946 0.00111392 0)
(0.0957567 0.00113575 0)
(0.0956186 0.00115732 0)
(0.0954803 0.00117869 0)
(0.0953421 0.00119994 0)
(0.095204 0.00122117 0)
(0.0950663 0.00124247 0)
(0.094929 0.00126394 0)
(0.0947923 0.00128569 0)
(0.0946565 0.0013078 0)
(0.0945218 0.00133035 0)
(0.0943882 0.0013534 0)
(0.0942562 0.00137699 0)
(0.0941259 0.00140116 0)
(0.0939976 0.0014259 0)
(0.0938715 0.0014512 0)
(0.0937481 0.00147703 0)
(0.0936275 0.00150337 0)
(0.0935102 0.00153018 0)
(0.0933965 0.00155743 0)
(0.0932869 0.00158511 0)
(0.0931816 0.00161324 0)
(0.0930813 0.00164185 0)
(0.0929865 0.00167101 0)
(0.0928976 0.00170085 0)
(0.0928154 0.00173149 0)
(0.0927405 0.0017631 0)
(0.0926739 0.00179584 0)
(0.0926164 0.00182988 0)
(0.0925692 0.00186537 0)
(0.0925334 0.0019024 0)
(0.0925106 0.00194096 0)
(0.0925023 0.00198095 0)
(0.0925103 0.00202207 0)
(0.0925365 0.00206381 0)
(0.0925833 0.00210538 0)
(0.0926528 0.00214561 0)
(0.0927476 0.00218293 0)
(0.0928702 0.00221524 0)
(0.0930229 0.00223989 0)
(0.0932081 0.00225361 0)
(0.0934277 0.00225252 0)
(0.0936831 0.00223215 0)
(0.0939752 0.0021876 0)
(0.0943038 0.00211376 0)
(0.0946677 0.00200581 0)
(0.0950645 0.00185971 0)
(0.0954907 0.00167295 0)
(0.0959414 0.00144524 0)
(0.0964105 0.00117891 0)
(0.100006 0.000275078 0)
(0.0999978 0.000670999 0)
(0.0999286 0.00086506 0)
(0.0997988 0.000858828 0)
(0.0996408 0.000781626 0)
(0.0994793 0.000718184 0)
(0.0993242 0.000688302 0)
(0.0991777 0.000683249 0)
(0.0990384 0.000691353 0)
(0.0989043 0.000705386 0)
(0.0987736 0.000722016 0)
(0.0986452 0.000740011 0)
(0.098518 0.000758998 0)
(0.0983917 0.00077889 0)
(0.0982659 0.000799666 0)
(0.0981402 0.000821307 0)
(0.0980145 0.000843785 0)
(0.0978886 0.000867056 0)
(0.0977625 0.000891062 0)
(0.0976361 0.000915732 0)
(0.0975094 0.000940972 0)
(0.0973822 0.00096667 0)
(0.0972547 0.000992707 0)
(0.0971268 0.00101896 0)
(0.0969984 0.00104531 0)
(0.0968695 0.00107164 0)
(0.0967401 0.00109785 0)
(0.0966103 0.00112386 0)
(0.09648 0.00114961 0)
(0.0963493 0.00117506 0)
(0.0962182 0.00120017 0)
(0.0960867 0.00122495 0)
(0.095955 0.00124943 0)
(0.0958231 0.00127362 0)
(0.0956912 0.0012976 0)
(0.0955593 0.00132143 0)
(0.0954276 0.00134517 0)
(0.0952964 0.00136891 0)
(0.0951657 0.00139274 0)
(0.0950358 0.00141672 0)
(0.0949069 0.00144093 0)
(0.0947792 0.00146542 0)
(0.094653 0.00149021 0)
(0.0945286 0.00151533 0)
(0.0944061 0.00154076 0)
(0.094286 0.00156646 0)
(0.0941686 0.00159238 0)
(0.0940542 0.00161845 0)
(0.0939431 0.00164457 0)
(0.0938359 0.00167067 0)
(0.0937328 0.00169664 0)
(0.0936343 0.00172241 0)
(0.093541 0.00174791 0)
(0.0934533 0.00177307 0)
(0.0933718 0.00179786 0)
(0.0932971 0.00182224 0)
(0.0932298 0.00184619 0)
(0.0931708 0.00186966 0)
(0.0931209 0.00189261 0)
(0.093081 0.00191493 0)
(0.0930522 0.00193648 0)
(0.0930355 0.001957 0)
(0.0930324 0.00197614 0)
(0.0930441 0.00199338 0)
(0.0930722 0.00200803 0)
(0.0931183 0.00201915 0)
(0.093184 0.00202557 0)
(0.0932709 0.00202579 0)
(0.0933809 0.00201797 0)
(0.0935154 0.00199992 0)
(0.0936758 0.00196903 0)
(0.0938633 0.00192236 0)
(0.0940786 0.00185658 0)
(0.0943222 0.00176815 0)
(0.0945938 0.0016534 0)
(0.0948924 0.00150882 0)
(0.0952165 0.00133143 0)
(0.0955638 0.00111923 0)
(0.0959312 0.000871823 0)
(0.096315 0.000590836 0)
(0.0967109 0.000280267 0)
(0.100005 0.000273335 0)
(0.099999 0.00068835 0)
(0.0999394 0.000911416 0)
(0.099823 0.000927008 0)
(0.0996776 0.000859817 0)
(0.099526 0.000798122 0)
(0.0993785 0.000766453 0)
(0.0992377 0.000759047 0)
(0.0991033 0.000765426 0)
(0.0989737 0.000778576 0)
(0.0988475 0.000795053 0)
(0.0987236 0.000813448 0)