/*--------------------------------*- C++ -*----------------------------------*\
| =========                 |                                                 |
| \\      /  F ield         | OpenFOAM: The Open Source CFD Toolbox           |
|  \\    /   O peration     | Version:  4.1                                   |
|   \\  /    A nd           | Web:      www.OpenFOAM.org                      |
|    \\/     M anipulation  |                                                 |
\*---------------------------------------------------------------------------*/
FoamFile
{
    version     2.0;
    format      ascii;
    class       volScalarField;
    location    "0.2";
    object      gradTy;
}
// * * * * * * * * * * * * * * * * * * * * * * * * * * * * * * * * * * * * * //

dimensions      [0 -1 0 1 0 0 0];

internalField   nonuniform List<scalar> 
512
(
-31.6118
-31.565
-31.4811
-31.3752
-31.2622
-31.154
-31.0574
-30.976
-30.9099
-30.858
-30.8183
-30.7887
-30.7671
-30.7519
-30.7418
-30.7358
-30.7335
-30.7345
-30.7389
-30.7471
-30.7598
-30.778
-30.803
-30.8361
-30.8789
-30.9323
-30.9963
-31.0688
-31.1453
-31.2176
-31.2752
-31.3075
-31.6199
-31.5707
-31.4829
-31.3732
-31.2572
-31.147
-31.0496
-30.968
-30.9021
-30.8507
-30.8115
-30.7823
-30.7611
-30.7462
-30.7363
-30.7305
-30.7282
-30.7292
-30.7335
-30.7416
-30.754
-30.7719
-30.7966
-30.8294
-30.872
-30.9255
-30.99
-31.0638
-31.1423
-31.2173
-31.2776
-31.3116
-31.6367
-31.5823
-31.4866
-31.3689
-31.2468
-31.1329
-31.0338
-30.9518
-30.8866
-30.836
-30.7978
-30.7696
-30.7492
-30.7349
-30.7254
-30.7199
-30.7177
-30.7186
-30.7228
-30.7305
-30.7425
-30.7598
-30.7838
-30.816
-30.8581
-30.9117
-30.9773
-31.0535
-31.1361
-31.2167
-31.2826
-31.3203
-31.6636
-31.6007
-31.4921
-31.362
-31.2306
-31.1111
-31.0096
-30.9274
-30.863
-30.814
-30.7773
-30.7505
-30.7313
-30.7179
-30.7091
-30.7039
-30.7019
-30.7028
-30.7067
-30.7139
-30.7252
-30.7416
-30.7645
-30.7957
-30.8371
-30.8907
-30.9576
-31.0375
-31.1265
-31.2157
-31.2907
-31.3345
-31.7028
-31.6269
-31.4993
-31.3515
-31.2075
-31.0808
-30.9764
-30.8942
-30.8314
-30.7845
-30.75
-30.7251
-30.7074
-30.6953
-30.6873
-30.6827
-30.6809
-30.6817
-30.6852
-30.6918
-30.7021
-30.7173
-30.7387
-30.7684
-30.8086
-30.862
-30.9306
-31.0151
-31.1126
-31.2141
-31.3026
-31.3557
-31.7575
-31.6624
-31.5081
-31.3364
-31.1762
-31.0409
-30.9336
-30.852
-30.7915
-30.7474
-30.7158
-30.6934
-30.6777
-30.667
-30.6601
-30.6561
-30.6546
-30.6554
-30.6584
-30.6642
-30.6733
-30.6869
-30.7064
-30.734
-30.7725
-30.8251
-30.8953
-30.9852
-31.0936
-31.2119
-31.3195
-31.3862
-31.8326
-31.7092
-31.5176
-31.3146
-31.1347
-30.99
-30.8803
-30.8003
-30.7431
-30.703
-30.6749
-30.6556
-30.6423
-30.6334
-30.6278
-30.6245
-30.6233
-30.6239
-30.6265
-30.6313
-30.639
-30.6506
-30.6677
-30.6926
-30.7285
-30.7796
-30.8508
-30.9466
-31.0682
-31.2083
-31.3427
-31.4297
-31.9352
-31.7697
-31.5263
-31.2835
-31.0807
-30.9264
-30.8156
-30.7387
-30.6864
-30.6512
-30.6276
-30.6119
-30.6014
-30.5947
-30.5904
-30.588
-30.5872
-30.5877
-30.5896
-30.5933
-30.5992
-30.6085
-30.6226
-30.6441
-30.6765
-30.7249
-30.7961
-30.8974
-31.0342
-31.2023
-31.3742
-31.4914
-32.076
-31.8464
-31.5314
-31.2389
-31.0108
-30.8481
-30.7384
-30.6669
-30.6212
-30.5923
-30.574
-30.5626
-30.5554
-30.5509
-30.5483
-30.5469
-30.5464
-30.5467
-30.548
-30.5504
-30.5544
-30.5609
-30.5715
-30.5887
-30.6162
-30.6604
-30.7298
-30.8355
-30.9885
-31.1918
-31.4157
-31.5788
-32.2711
-31.9414
-31.5275
-31.1748
-30.9207
-30.7526
-30.6477
-30.5845
-30.5476
-30.5265
-30.5145
-30.5079
-30.5044
-30.5025
-30.5015
-30.5011
-30.501
-30.5012
-30.5018
-30.5028
-30.5047
-30.5081
-30.5145
-30.5264
-30.5477
-30.5854
-30.6503
-30.7577
-30.9265
-31.1724
-31.469
-31.7035
-32.5456
-32.0546
-31.5049
-31.0825
-30.8053
-30.6374
-30.5423
-30.4914
-30.4659
-30.4541
-30.4493
-30.4482
-30.4485
-30.4494
-30.4503
-30.4509
-30.4513
-30.4513
-30.451
-30.4506
-30.4501
-30.4501
-30.4518
-30.4574
-30.4707
-30.4993
-30.556
-30.6606
-30.8412
-31.1367
-31.5343
-31.8832
-32.9402
-32.1797
-31.447
-30.9504
-30.6587
-30.4999
-30.4218
-30.3875
-30.3763
-30.3755
-30.3788
-30.3836
-30.3881
-30.3918
-30.3946
-30.3963
-30.3971
-30.3969
-30.3958
-30.3939
-30.3911
-30.3873
-30.3836
-30.382
-30.3855
-30.4019
-30.4455
-30.5403
-30.7233
-31.0716
-31.6081
-32.1467
-33.5224
-32.2953
-31.327
-30.7635
-30.4752
-30.3383
-30.2861
-30.2736
-30.2799
-30.2915
-30.3036
-30.3147
-30.3236
-30.3301
-30.3348
-30.3377
-30.3388
-30.3385
-30.3366
-30.3331
-30.3279
-30.3201
-30.3105
-30.3011
-30.2928
-30.2934
-30.318
-30.394
-30.5603
-30.9558
-31.6781
-32.5419
-34.4092
-32.3436
-31.103
-30.5045
-30.2502
-30.1517
-30.1364
-30.151
-30.1782
-30.2033
-30.2244
-30.2424
-30.2556
-30.2649
-30.2715
-30.2754
-30.2769
-30.2764
-30.2736
-30.2687
-30.2612
-30.2494
-30.2333
-30.2158
-30.1939
-30.1748
-30.1736
-30.2212
-30.3363
-30.7549
-31.7096
-33.1506
-35.8108
-32.1832
-30.7156
-30.1558
-29.9823
-29.9403
-29.9751
-30.021
-30.0726
-30.1118
-30.1418
-30.167
-30.1843
-30.196
-30.2045
-30.2094
-30.2112
-30.2107
-30.2069
-30.2007
-30.1914
-30.1754
-30.1522
-30.1273
-30.09
-30.0475
-30.0129
-30.0275
-30.0325
-30.4165
-31.6167
-34.1171
-38.1186
-31.4807
-30.0982
-29.707
-29.6775
-29.7054
-29.8067
-29.8851
-29.9657
-30.0183
-30.0561
-30.0891
-30.1101
-30.1236
-30.1343
-30.1399
-30.1417
-30.1415
-30.1365
-30.1293
-30.119
-30.0989
-30.0671
-30.0375
-29.983
-29.9138
-29.8356
-29.8319
-29.6299
-29.8703
-31.196
-35.7064
)
;

boundaryField
{
    left
    {
        type            calculated;
        value           nonuniform List<scalar> 
16
(
-31.6118
-31.6199
-31.6367
-31.6636
-31.7028
-31.7575
-31.8326
-31.9352
-32.076
-32.2711
-32.5456
-32.9402
-33.5224
-34.4092
-35.8108
-38.1186
)
;
    }
    right
    {
        type            calculated;
        value           nonuniform List<scalar> 
16
(
-31.3075
-31.3116
-31.3203
-31.3345
-31.3557
-31.3862
-31.4297
-31.4914
-31.5788
-31.7035
-31.8832
-32.1467
-32.5419
-33.1506
-34.1171
-35.7064
)
;
    }
    interface
    {
        type            calculated;
        value           nonuniform List<scalar> 
32
(
-39.5629
-30.9355
-29.724
-29.4569
-29.5174
-29.5824
-29.7215
-29.816
-29.9125
-29.9712
-30.0126
-30.0498
-30.0724
-30.0867
-30.0984
-30.1044
-30.1062
-30.1062
-30.1005
-30.0928
-30.0823
-30.0602
-30.0237
-29.9927
-29.9291
-29.8458
-29.7427
-29.7373
-29.4017
-29.5357
-30.8682
-36.6998
)
;
    }
    bottom
    {
        type            calculated;
        value           nonuniform List<scalar> 
32
(
-31.6098
-31.5636
-31.4806
-31.3757
-31.2634
-31.1557
-31.0594
-30.978
-30.9118
-30.8598
-30.82
-30.7902
-30.7686
-30.7533
-30.7431
-30.7371
-30.7348
-30.7358
-30.7402
-30.7485
-30.7612
-30.7795
-30.8045
-30.8378
-30.8806
-30.934
-30.9978
-31.0701
-31.146
-31.2176
-31.2746
-31.3065
)
;
    }
    defaultFaces
    {
        type            empty;
    }
}


// ************************************************************************* //
