/*--------------------------------*- C++ -*----------------------------------*\
| =========                 |                                                 |
| \\      /  F ield         | OpenFOAM: The Open Source CFD Toolbox           |
|  \\    /   O peration     | Version:  4.1                                   |
|   \\  /    A nd           | Web:      www.OpenFOAM.org                      |
|    \\/     M anipulation  |                                                 |
\*---------------------------------------------------------------------------*/
FoamFile
{
    version     2.0;
    format      ascii;
    class       volScalarField;
    location    "0.2";
    object      gradTx;
}
// * * * * * * * * * * * * * * * * * * * * * * * * * * * * * * * * * * * * * //

dimensions      [0 -1 0 1 0 0 0];

internalField   nonuniform List<scalar> 
512
(
0.00577319
0.0161489
0.0234906
0.0271467
0.0275001
0.0255099
0.0222162
0.0184415
0.0147695
0.0114789
0.00869452
0.00642736
0.00461857
0.00318022
0.00201859
0.00104356
0.000170615
-0.000680324
-0.00158719
-0.00262762
-0.00387879
-0.00541287
-0.00728509
-0.00951083
-0.0120289
-0.0146509
-0.0170073
-0.0185183
-0.0184434
-0.016077
-0.0111051
-0.00398322
0.0176156
0.0492121
0.071414
0.0822885
0.0831127
0.0768791
0.0667884
0.0553214
0.0442222
0.03432
0.0259658
0.0191772
0.0137697
0.00947574
0.00601178
0.00310663
0.00050677
-0.00202765
-0.00473
-0.00783334
-0.0115704
-0.0161607
-0.0217756
-0.0284704
-0.0360739
-0.0440342
-0.0512494
-0.0559671
-0.0559166
-0.0488915
-0.0338564
-0.0121612
0.030381
0.0846472
0.122234
0.140012
0.140568
0.129288
0.111761
0.0921761
0.0734107
0.0568065
0.0428798
0.0316098
0.0226624
0.0155768
0.00987351
0.005098
0.000827915
-0.00333493
-0.00777809
-0.0128902
-0.0190629
-0.0266721
-0.0360223
-0.0472359
-0.0600693
-0.0736487
-0.0861636
-0.0946543
-0.0951734
-0.0837362
-0.0582839
-0.0209971
0.0448077
0.124296
0.178117
0.202159
0.20111
0.183394
0.15734
0.128936
0.102127
0.0786816
0.0591853
0.0435075
0.0311224
0.0213542
0.0135173
0.00697088
0.00112462
-0.0045753
-0.0106681
-0.017698
-0.0262205
-0.036782
-0.0498474
-0.0656519
-0.0839445
-0.103604
-0.122162
-0.135409
-0.137483
-0.12213
-0.0856905
-0.0310136
0.0618366
0.17043
0.241605
0.27076
0.265996
0.239781
0.203641
0.165452
0.130106
0.0996548
0.0746134
0.0546448
0.0389736
0.0266796
0.0168585
0.00867992
0.00138817
-0.00572179
-0.0133367
-0.022155
-0.0329022
-0.046313
-0.06305
-0.0835238
-0.107571
-0.133939
-0.159598
-0.179063
-0.184242
-0.165864
-0.117699
-0.0428827
0.0827465
0.226022
0.315803
0.348089
0.336478
0.298911
0.250638
0.201461
0.157006
0.119388
0.0888717
0.0647868
0.0460384
0.0314266
0.0198147
0.0101817
0.00161073
-0.00674745
-0.0157206
-0.0261582
-0.038961
-0.0550726
-0.0753979
-0.100602
-0.130736
-0.164585
-0.198724
-0.226427
-0.237016
-0.217146
-0.156449
-0.0575242
0.109364
0.295136
0.404625
0.436713
0.413743
0.361041
0.298098
0.236541
0.182381
0.137488
0.10164
0.0736891
0.0521384
0.0354716
0.0223073
0.0114354
0.00178552
-0.00762583
-0.0177576
-0.0296043
-0.0442442
-0.0628513
-0.086622
-0.116569
-0.153117
-0.195325
-0.239638
-0.278248
-0.297572
-0.278786
-0.204883
-0.0762548
0.144411
0.383522
0.513093
0.539495
0.498805
0.426109
0.345503
0.270064
0.205662
0.153494
0.112572
0.0810989
0.057097
0.0386959
0.0242625
0.0124036
0.00190685
-0.00833152
-0.019388
-0.0323913
-0.0485952
-0.069423
-0.0964134
-0.131028
-0.174254
-0.225735
-0.282195
-0.335114
-0.367878
-0.354415
-0.267174
-0.101032
0.192098
0.49956
0.647705
0.659516
0.59231
0.493589
0.391959
0.301162
0.226141
0.166883
0.121294
0.0867598
0.0607428
0.0409892
0.0256136
0.0130533
0.00197027
-0.00884102
-0.0205564
-0.0344218
-0.0518569
-0.0745478
-0.104424
-0.143493
-0.193521
-0.255128
-0.325896
-0.397296
-0.450025
-0.448772
-0.349411
-0.134868
0.259186
0.655775
0.816829
0.799832
0.694233
0.562286
0.436102
0.328683
0.242968
0.177071
0.127419
0.0904195
0.0629164
0.042253
0.0263031
0.0133571
0.00197273
-0.00913368
-0.0212142
-0.0356074
-0.053877
-0.0779786
-0.110274
-0.153394
-0.210111
-0.282491
-0.369742
-0.464485
-0.546027
-0.568017
-0.46069
-0.182575
0.356924
0.871331
1.03102
0.962926
0.803398
0.630103
0.476009
0.351179
0.255156
0.183436
0.130562
0.0918404
0.0634782
0.0424066
0.0262857
0.013295
0.00191281
-0.00919264
-0.021322
-0.0358741
-0.0545158
-0.0794698
-0.113565
-0.160087
-0.223024
-0.306429
-0.412068
-0.535382
-0.65736
-0.720037
-0.614941
-0.252099
0.504708
1.17616
1.30287
1.14961
0.91679
0.693769
0.509123
0.36691
0.261611
0.185346
0.130358
0.0908132
0.0623191
0.0413926
0.0255309
0.0128557
0.00179091
-0.00900576
-0.0208535
-0.0351702
-0.0536561
-0.0787888
-0.113903
-0.16288
-0.231079
-0.325133
-0.450382
-0.607096
-0.784051
-0.914532
-0.833958
-0.357036
0.737168
1.61792
1.64567
1.35707
1.02864
0.748594
0.532223
0.373888
0.261172
0.18221
0.126493
0.0871688
0.0593714
0.039183
0.0240249
0.0120387
0.00160914
-0.00856635
-0.0197971
-0.0334763
-0.0512151
-0.0757274
-0.110934
-0.161077
-0.232947
-0.336396
-0.481292
-0.674313
-0.922989
-1.16242
-1.15251
-0.521403
1.11826
2.27383
2.06874
1.57553
1.1294
0.788344
0.541471
0.369965
0.252674
0.173541
0.118731
0.0807869
0.0546226
0.0357847
0.0217697
0.0108567
0.00137056
-0.00787333
-0.0181576
-0.0308191
-0.0471599
-0.0701063
-0.104388
-0.154059
-0.227211
-0.337685
-0.500685
-0.728261
-1.06497
-1.47342
-1.62701
-0.788959
1.76997
3.27101
2.56523
1.78349
1.20501
0.805465
0.532582
0.353012
0.235018
0.159069
0.106949
0.0715984
0.0481382
0.0312452
0.0187797
0.00934006
0.00107737
-0.00693019
-0.0159515
-0.0272916
-0.0415292
-0.0617603
-0.0941489
-0.141387
-0.212447
-0.326253
-0.504498
-0.755647
-1.18985
-1.8491
-2.35035
-1.24188
2.93207
4.82147
3.08246
1.94217
1.23716
0.791937
0.501125
0.321213
0.20724
0.138914
0.0911653
0.0595685
0.0401022
0.0256587
0.0150707
0.00754958
0.000725822
-0.00574278
-0.0131914
-0.0230857
-0.0344701
-0.0504756
-0.0803443
-0.122972
-0.1873
-0.299143
-0.49069
-0.738056
-1.25946
-2.26554
-3.47732
-2.03914
)
;

boundaryField
{
    left
    {
        type            calculated;
        value           uniform 0;
    }
    right
    {
        type            calculated;
        value           uniform 0;
    }
    interface
    {
        type            calculated;
        value           nonuniform List<scalar> 
32
(
2.93207
4.82147
3.08246
1.94217
1.23716
0.791937
0.501125
0.321213
0.20724
0.138914
0.0911653
0.0595685
0.0401022
0.0256587
0.0150707
0.00754958
0.000725822
-0.00574278
-0.0131914
-0.0230857
-0.0344701
-0.0504756
-0.0803443
-0.122972
-0.1873
-0.299143
-0.49069
-0.738056
-1.25946
-2.26554
-3.47732
-2.03914
)
;
    }
    bottom
    {
        type            calculated;
        value           nonuniform List<scalar> 
32
(
0.00577319
0.0161489
0.0234906
0.0271467
0.0275001
0.0255099
0.0222162
0.0184415
0.0147695
0.0114789
0.00869452
0.00642736
0.00461857
0.00318022
0.00201859
0.00104356
0.000170615
-0.000680324
-0.00158719
-0.00262762
-0.00387879
-0.00541287
-0.00728509
-0.00951083
-0.0120289
-0.0146509
-0.0170073
-0.0185183
-0.0184434
-0.016077
-0.0111051
-0.00398322
)
;
    }
    defaultFaces
    {
        type            empty;
    }
}


// ************************************************************************* //
