/*--------------------------------*- C++ -*----------------------------------*\
| =========                 |                                                 |
| \\      /  F ield         | OpenFOAM: The Open Source CFD Toolbox           |
|  \\    /   O peration     | Version:  4.1                                   |
|   \\  /    A nd           | Web:      www.OpenFOAM.org                      |
|    \\/     M anipulation  |                                                 |
\*---------------------------------------------------------------------------*/
FoamFile
{
    version     2.0;
    format      ascii;
    class       volScalarField;
    location    "0.2";
    object      T;
}
// * * * * * * * * * * * * * * * * * * * * * * * * * * * * * * * * * * * * * //

dimensions      [0 0 0 1 0 0 0];

internalField   nonuniform List<scalar> 
512
(
309.753
309.753
309.754
309.755
309.756
309.757
309.757
309.758
309.759
309.759
309.759
309.759
309.76
309.76
309.76
309.76
309.76
309.76
309.76
309.76
309.76
309.76
309.759
309.759
309.759
309.758
309.758
309.757
309.757
309.756
309.756
309.755
309.259
309.26
309.262
309.265
309.267
309.27
309.272
309.274
309.276
309.277
309.278
309.278
309.279
309.279
309.28
309.28
309.28
309.28
309.28
309.279
309.279
309.279
309.278
309.277
309.276
309.275
309.274
309.272
309.27
309.268
309.267
309.266
308.765
308.767
308.77
308.774
308.779
308.783
308.787
308.79
308.793
308.795
308.796
308.798
308.798
308.799
308.799
308.8
308.8
308.8
308.799
308.799
308.799
308.798
308.797
308.796
308.794
308.792
308.789
308.787
308.783
308.781
308.778
308.777
308.27
308.273
308.278
308.284
308.291
308.297
308.302
308.307
308.31
308.313
308.315
308.317
308.318
308.319
308.319
308.32
308.32
308.32
308.319
308.319
308.318
308.317
308.316
308.314
308.312
308.309
308.306
308.301
308.297
308.293
308.289
308.287
307.775
307.779
307.786
307.794
307.803
307.811
307.818
307.824
307.828
307.832
307.835
307.837
307.838
307.839
307.84
307.84
307.84
307.84
307.84
307.839
307.838
307.837
307.836
307.833
307.83
307.827
307.822
307.817
307.811
307.805
307.8
307.798
307.28
307.285
307.294
307.305
307.316
307.326
307.334
307.341
307.347
307.351
307.354
307.357
307.358
307.36
307.36
307.361
307.361
307.361
307.361
307.36
307.359
307.357
307.355
307.353
307.349
307.345
307.339
307.332
307.325
307.317
307.311
307.308
306.783
306.79
306.801
306.815
306.829
306.841
306.851
306.86
306.866
306.871
306.875
306.877
306.879
306.881
306.882
306.882
306.882
306.882
306.882
306.881
306.88
306.878
306.876
306.873
306.869
306.863
306.856
306.848
306.839
306.83
306.822
306.817
306.285
306.294
306.309
306.326
306.343
306.357
306.369
306.379
306.386
306.392
306.396
306.399
306.401
306.402
306.403
306.404
306.404
306.404
306.403
306.403
306.401
306.4
306.397
306.394
306.389
306.383
306.375
306.365
306.354
306.342
306.332
306.325
305.785
305.797
305.816
305.838
305.857
305.875
305.888
305.899
305.907
305.913
305.918
305.921
305.923
305.925
305.926
305.926
305.926
305.926
305.926
305.925
305.924
305.922
305.919
305.915
305.91
305.903
305.894
305.883
305.869
305.855
305.841
305.833
305.283
305.299
305.324
305.35
305.374
305.393
305.409
305.42
305.429
305.436
305.44
305.444
305.446
305.448
305.449
305.449
305.449
305.449
305.449
305.448
305.447
305.445
305.442
305.438
305.432
305.425
305.415
305.402
305.386
305.367
305.35
305.339
304.777
304.799
304.831
304.863
304.891
304.914
304.931
304.943
304.953
304.959
304.964
304.967
304.97
304.971
304.972
304.973
304.973
304.973
304.973
304.972
304.97
304.968
304.965
304.961
304.955
304.947
304.936
304.922
304.903
304.881
304.858
304.842
304.266
304.297
304.339
304.379
304.411
304.436
304.454
304.468
304.477
304.484
304.489
304.492
304.494
304.496
304.497
304.498
304.498
304.498
304.497
304.496
304.495
304.493
304.49
304.486
304.48
304.472
304.46
304.443
304.422
304.394
304.365
304.342
303.747
303.793
303.848
303.896
303.933
303.96
303.98
303.994
304.003
304.01
304.015
304.018
304.02
304.022
304.023
304.023
304.023
304.023
304.023
304.022
304.021
304.019
304.016
304.012
304.006
303.997
303.985
303.967
303.943
303.91
303.87
303.837
303.218
303.288
303.36
303.417
303.459
303.488
303.508
303.522
303.531
303.537
303.542
303.545
303.547
303.548
303.549
303.55
303.55
303.55
303.549
303.549
303.547
303.546
303.543
303.539
303.533
303.525
303.512
303.494
303.467
303.427
303.375
303.325
302.672
302.783
302.876
302.943
302.988
303.018
303.038
303.051
303.06
303.066
303.07
303.073
303.075
303.076
303.077
303.077
303.077
303.077
303.077
303.076
303.075
303.074
303.071
303.068
303.062
303.054
303.042
303.023
302.995
302.948
302.879
302.802
302.099
302.282
302.4
302.475
302.522
302.552
302.571
302.583
302.591
302.596
302.6
302.602
302.604
302.605
302.605
302.606
302.606
302.606
302.605
302.605
302.604
302.603
302.601
302.598
302.593
302.586
302.574
302.555
302.528
302.477
302.387
302.259
)
;

boundaryField
{
    left
    {
        type            zeroGradient;
    }
    right
    {
        type            zeroGradient;
    }
    interface
    {
        type            fixedValue;
        value           nonuniform List<scalar> 
32
(
301.816
302.07
302.201
302.28
302.329
302.361
302.38
302.392
302.4
302.405
302.408
302.41
302.412
302.413
302.413
302.414
302.414
302.414
302.413
302.413
302.412
302.411
302.409
302.406
302.402
302.395
302.383
302.363
302.338
302.283
302.18
302.005
)
;
    }
    bottom
    {
        type            fixedValue;
        value           uniform 310;
    }
    defaultFaces
    {
        type            empty;
    }
}


// ************************************************************************* //
