/*--------------------------------*- C++ -*----------------------------------*\
| =========                 |                                                 |
| \\      /  F ield         | OpenFOAM: The Open Source CFD Toolbox           |
|  \\    /   O peration     | Version:  4.1                                   |
|   \\  /    A nd           | Web:      www.OpenFOAM.org                      |
|    \\/     M anipulation  |                                                 |
\*---------------------------------------------------------------------------*/
FoamFile
{
    version     2.0;
    format      ascii;
    class       surfaceScalarField;
    location    "0.8";
    object      phi;
}
// * * * * * * * * * * * * * * * * * * * * * * * * * * * * * * * * * * * * * //

dimensions      [1 0 -1 0 0 0 0];

internalField   nonuniform List<scalar> 
23692
(
9.30864e-05
-6.84035e-09
9.30916e-05
-5.15893e-09
9.30851e-05
6.65664e-09
9.30575e-05
2.774e-08
9.30037e-05
5.39172e-08
9.29244e-05
7.9518e-08
9.28251e-05
9.96217e-08
9.27137e-05
1.11702e-07
9.25982e-05
1.15892e-07
9.24846e-05
1.14139e-07
9.23761e-05
1.09001e-07
9.2274e-05
1.02702e-07
9.2178e-05
9.66971e-08
9.20871e-05
9.16591e-08
9.20003e-05
8.77024e-08
9.19167e-05
8.46322e-08
9.18356e-05
8.21568e-08
9.17569e-05
8.00024e-08
9.16802e-05
7.79583e-08
9.16058e-05
7.5893e-08
9.15337e-05
7.37353e-08
9.1464e-05
7.14506e-08
9.13969e-05
6.903e-08
9.13325e-05
6.64769e-08
9.12709e-05
6.38003e-08
9.12122e-05
6.10098e-08
9.11566e-05
5.81143e-08
9.11042e-05
5.51231e-08
9.1055e-05
5.20439e-08
9.10091e-05
4.88872e-08
9.09666e-05
4.56632e-08
9.09276e-05
4.23849e-08
9.0892e-05
3.90686e-08
9.086e-05
3.57338e-08
9.08314e-05
3.24041e-08
9.08063e-05
2.91053e-08
9.07846e-05
2.58684e-08
9.07661e-05
2.27286e-08
9.07509e-05
1.97237e-08
9.07386e-05
1.6898e-08
9.0729e-05
1.42958e-08
9.07219e-05
1.19689e-08
9.0717e-05
9.96904e-09
9.07138e-05
8.35339e-09
9.07118e-05
7.18222e-09
9.07107e-05
6.52238e-09
9.07097e-05
6.43967e-09
9.07083e-05
7.01047e-09
9.07056e-05
8.31433e-09
9.0701e-05
1.04393e-08
9.06933e-05
1.34815e-08
9.06817e-05
1.75506e-08
9.06649e-05
2.27649e-08
9.06417e-05
2.92636e-08
9.06107e-05
3.72053e-08
9.057e-05
4.6774e-08
9.05181e-05
5.81869e-08
9.04526e-05
7.17011e-08
9.03713e-05
8.76239e-08
9.02713e-05
1.06327e-07
9.01494e-05
1.28267e-07
9.00017e-05
1.54005e-07
8.98238e-05
1.8424e-07
8.96103e-05
2.19854e-07
8.93547e-05
2.61974e-07
8.90491e-05
3.12052e-07
8.86834e-05
3.71992e-07
8.82454e-05
4.44324e-07
8.77193e-05
5.32469e-07
8.70845e-05
6.41132e-07
8.63139e-05
7.76903e-07
8.53709e-05
9.49203e-07
8.42053e-05
1.17177e-06
8.27465e-05
1.46507e-06
8.08924e-05
1.86015e-06
7.84935e-05
2.40502e-06
7.5325e-05
3.17459e-06
7.10435e-05
4.28752e-06
6.51042e-05
5.94525e-06
5.65822e-05
8.52784e-06
1.3048e-05
4.354e-05
9.96068e-05
-1.42409e-08
9.96126e-05
-1.09566e-08
9.9606e-05
1.33224e-08
9.95771e-05
5.6822e-08
9.95203e-05
1.10928e-07
9.94361e-05
1.63919e-07
9.93304e-05
2.05612e-07
9.92117e-05
2.30752e-07
9.90885e-05
2.39575e-07
9.8967e-05
2.36086e-07
9.88511e-05
2.25559e-07
9.87418e-05
2.12597e-07
9.8639e-05
2.00209e-07
9.85418e-05
1.89804e-07
9.84488e-05
1.81618e-07
9.83592e-05
1.75261e-07
9.82724e-05
1.70133e-07
9.81881e-05
1.65665e-07
9.8106e-05
1.61435e-07
9.80263e-05
1.57166e-07
9.79491e-05
1.52709e-07
9.78744e-05
1.47996e-07
9.78025e-05
1.43006e-07
9.77334e-05
1.37748e-07
9.76673e-05
1.32236e-07
9.76044e-05
1.26493e-07
9.75447e-05
1.20536e-07
9.74883e-05
1.14384e-07
9.74353e-05
1.08054e-07
9.73858e-05
1.01568e-07
9.734e-05
9.49454e-08
9.72977e-05
8.82146e-08
9.72591e-05
8.14093e-08
9.72242e-05
7.45684e-08
9.7193e-05
6.77403e-08
9.71654e-05
6.09796e-08
9.71413e-05
5.43493e-08
9.71208e-05
4.79216e-08
9.71035e-05
4.17798e-08
9.70893e-05
3.6007e-08
9.70779e-05
3.07012e-08
9.70692e-05
2.59618e-08
9.70626e-05
2.19014e-08
9.70578e-05
1.86365e-08
9.70543e-05
1.62923e-08
9.70516e-05
1.5001e-08
9.7049e-05
1.49056e-08
9.70458e-05
1.61573e-08
9.70413e-05
1.89207e-08
9.70345e-05
2.33772e-08
9.70245e-05
2.97258e-08
9.70102e-05
3.81845e-08
9.69904e-05
4.90023e-08
9.69637e-05
6.24599e-08
9.69286e-05
7.8881e-08
9.68833e-05
9.86416e-08
9.68259e-05
1.2218e-07
9.67543e-05
1.50018e-07
9.66659e-05
1.82778e-07
9.65578e-05
2.21212e-07
9.64266e-05
2.66233e-07
9.62684e-05
3.18967e-07
9.60787e-05
3.8081e-07
9.58518e-05
4.53515e-07
9.55813e-05
5.39304e-07
9.52591e-05
6.41029e-07
9.48755e-05
7.62396e-07
9.44184e-05
9.08287e-07
9.38724e-05
1.08522e-06
9.32182e-05
1.30204e-06
9.24309e-05
1.57092e-06
9.14779e-05
1.90888e-06
9.03163e-05
2.34005e-06
8.88889e-05
2.89909e-06
8.71196e-05
3.63605e-06
8.49079e-05
4.62318e-06
8.21267e-05
5.9623e-06
7.86309e-05
7.78975e-06
7.43075e-05
1.0275e-05
6.92896e-05
1.3552e-05
1.72086e-05
6.51353e-05
0.000106584
-2.22432e-08
0.000106591
-1.76065e-08
0.000106584
1.96338e-08
0.000106555
8.6695e-08
0.000106495
1.70352e-07
0.000106407
2.52516e-07
0.000106296
3.17404e-07
0.00010617
3.56795e-07
0.000106039
3.70954e-07
0.00010591
3.65991e-07
0.000105786
3.50022e-07
0.000105669
3.30154e-07
0.000105559
3.11071e-07
0.000105455
2.94971e-07
0.000105355
2.82262e-07
0.000105259
2.72367e-07
0.000105166
2.64369e-07
0.000105076
2.57406e-07
0.000104988
2.50822e-07
0.000104903
2.44197e-07
0.00010482
2.37294e-07
0.00010474
2.30006e-07
0.000104663
2.22306e-07
0.000104589
2.14197e-07
0.000104518
2.0571e-07
0.00010445
1.96872e-07
0.000104386
1.87712e-07
0.000104325
1.7826e-07
0.000104268
1.68542e-07
0.000104214
1.58589e-07
0.000104164
1.48434e-07
0.000104118
1.38121e-07
0.000104076
1.277e-07
0.000104037
1.17237e-07
0.000104003
1.06799e-07
0.000103972
9.64753e-08
0.000103945
8.63641e-08
0.000103921
7.65759e-08
0.0001039
6.72333e-08
0.000103883
5.84735e-08
0.000103869
5.04398e-08
0.000103857
4.32924e-08
0.000103848
3.72009e-08
0.00010384
3.23439e-08
0.000103833
2.89143e-08
0.000103827
2.71164e-08
0.000103821
2.71683e-08
0.000103814
2.93039e-08
0.000103806
3.37756e-08
0.000103795
4.08596e-08
0.000103781
5.08582e-08
0.000103762
6.41081e-08
0.000103736
8.09858e-08
0.000103704
1.01919e-07
0.000103662
1.27398e-07
0.00010361
1.57989e-07
0.000103545
1.94354e-07
0.000103465
2.37277e-07
0.000103367
2.87689e-07
0.000103249
3.46708e-07
0.000103107
4.1569e-07
0.000102937
4.96291e-07
0.000102734
5.90561e-07
0.000102494
7.01044e-07
0.00010221
8.30944e-07
0.000101874
9.84328e-07
0.000101477
1.16642e-06
0.000101009
1.38398e-06
0.000100455
1.64591e-06
9.98003e-05
1.964e-06
9.90244e-05
2.35404e-06
9.81031e-05
2.83739e-06
9.70072e-05
3.44306e-06
9.57028e-05
4.21049e-06
9.41533e-05
5.19263e-06
9.23249e-05
6.45857e-06
9.02021e-05
8.09204e-06
8.78202e-05
1.01784e-05
8.53386e-05
1.27635e-05
8.31763e-05
1.5721e-05
1.83832e-05
8.20084e-05
0.00011405
-3.0938e-08
0.000114057
-2.53508e-08
0.000114052
2.51045e-08
0.000114022
1.16586e-07
0.000113962
2.31215e-07
0.00011387
3.44279e-07
0.000113754
4.3409e-07
0.000113622
4.89195e-07
0.000113484
5.09731e-07
0.000113346
5.03881e-07
0.000113214
4.82672e-07
0.000113089
4.55823e-07
0.000112971
4.29804e-07
0.00011286
4.07707e-07
0.000112753
3.90161e-07
0.00011265
3.76427e-07
0.00011255
3.653e-07
0.000112454
3.55611e-07
0.00011236
3.46474e-07
0.000112268
3.37313e-07
0.00011218
3.27801e-07
0.000112094
3.17794e-07
0.000112012
3.0724e-07
0.000111932
2.96153e-07
0.000111856
2.8456e-07
0.000111783
2.72505e-07
0.000111714
2.60027e-07
0.000111649
2.47162e-07
0.000111587
2.33951e-07
0.000111528
2.20432e-07
0.000111474
2.06657e-07
0.000111424
1.9268e-07
0.000111377
1.78578e-07
0.000111334
1.64429e-07
0.000111295
1.50339e-07
0.00011126
1.36423e-07
0.000111229
1.22815e-07
0.000111201
1.09668e-07
0.000111177
9.7151e-08
0.000111155
8.54477e-08
0.000111137
7.47578e-08
0.000111121
6.52978e-08
0.000111107
5.72967e-08
0.000111095
5.10024e-08
0.000111083
4.66744e-08
0.000111072
4.45911e-08
0.000111061
4.50475e-08
0.000111049
4.83628e-08
0.000111035
5.48783e-08
0.000111018
6.4966e-08
0.000110997
7.90357e-08
0.000110971
9.75383e-08
0.000110938
1.20979e-07
0.000110897
1.49929e-07
0.000110847
1.85042e-07
0.000110786
2.27068e-07
0.000110711
2.76885e-07
0.00011062
3.3552e-07
0.000110511
4.04189e-07
0.000110381
4.84347e-07
0.000110227
5.77741e-07
0.000110045
6.86495e-07
0.00010983
8.13201e-07
0.000109578
9.61056e-07
0.000109282
1.13403e-06
0.000108937
1.33708e-06
0.000108535
1.57648e-06
0.000108067
1.86019e-06
0.000107522
2.19839e-06
0.000106889
2.60421e-06
0.000106157
3.09459e-06
0.00010531
3.69145e-06
0.000104338
4.42294e-06
0.000103231
5.32466e-06
0.000101991
6.44014e-06
0.000100638
7.81886e-06
9.92296e-05
9.5083e-06
9.78822e-05
1.15333e-05
9.68023e-05
1.38506e-05
9.62734e-05
1.62571e-05
1.82402e-05
9.64236e-05
0.000122038
-4.04174e-08
0.000122048
-3.44766e-08
0.000122044
2.91209e-08
0.000122015
1.45534e-07
0.000121954
2.9226e-07
0.000121861
4.37845e-07
0.000121741
5.54422e-07
0.000121604
6.27008e-07
0.000121458
6.55363e-07
0.000121313
6.49616e-07
0.000121173
6.2369e-07
0.00012104
5.90008e-07
0.000120913
5.56931e-07
0.000120794
5.28559e-07
0.000120679
5.0583e-07
0.000120569
4.87916e-07
0.000120462
4.73331e-07
0.000120359
4.60634e-07
0.000120258
4.48698e-07
0.000120161
4.3679e-07
0.000120066
4.24491e-07
0.000119975
4.11601e-07
0.000119886
3.98055e-07
0.000119801
3.83858e-07
0.00011972
3.6905e-07
0.000119642
3.53674e-07
0.000119567
3.37784e-07
0.000119497
3.21427e-07
0.00011943
3.04652e-07
0.000119366
2.87512e-07
0.000119307
2.7007e-07
0.000119252
2.52405e-07
0.0001192
2.34604e-07
0.000119153
2.16779e-07
0.000119109
1.99059e-07
0.000119069
1.81593e-07
0.000119033
1.64554e-07
0.000119
1.4814e-07
0.00011897
1.3256e-07
0.000118944
1.18053e-07
0.00011892
1.04873e-07
0.000118898
9.32938e-08
0.000118879
8.36092e-08
0.00011886
7.6131e-08
0.000118843
7.11909e-08
0.000118825
6.91393e-08
0.000118807
7.03522e-08
0.000118787
7.52291e-08
0.000118765
8.42024e-08
0.00011874
9.77395e-08
0.000118711
1.16352e-07
0.000118675
1.40603e-07
0.000118633
1.71121e-07
0.000118582
2.08613e-07
0.000118521
2.53884e-07
0.000118449
3.07852e-07
0.000118362
3.71585e-07
0.000118259
4.46324e-07
0.000118138
5.33532e-07
0.000117996
6.34936e-07
0.000117829
7.52599e-07
0.000117635
8.88996e-07
0.00011741
1.04711e-06
0.000117149
1.23058e-06
0.000116847
1.44382e-06
0.0001165
1.69228e-06
0.000116102
1.98266e-06
0.000115648
2.32326e-06
0.00011513
2.72436e-06
0.000114544
3.19871e-06
0.000113885
3.76202e-06
0.000113151
4.43352e-06
0.000112346
5.23623e-06
0.000111482
6.19671e-06
0.000110586
7.34352e-06
0.00010971
8.70293e-06
0.000108937
1.02894e-05
0.000108391
1.20874e-05
0.000108229
1.40203e-05
0.000108588
1.59052e-05
1.74119e-05
0.000109424
0.000130587
-5.07862e-08
0.000130598
-4.53146e-08
0.000130596
3.09782e-08
0.000130569
1.72384e-07
0.00013051
3.51964e-07
0.000130417
5.31519e-07
0.000130295
6.76806e-07
0.000130153
7.68965e-07
0.000130002
8.07037e-07
0.000129849
8.02851e-07
0.000129701
7.73128e-07
0.000129559
7.33024e-07
0.000129424
6.92915e-07
0.000129295
6.58039e-07
0.000129172
6.29768e-07
0.000129055
6.07265e-07
0.000128941
5.88841e-07
0.00012883
5.72784e-07
0.000128723
5.57753e-07
0.000128619
5.42848e-07
0.000128518
5.2755e-07
0.000128421
5.11603e-07
0.000128326
4.94916e-07
0.000128236
4.77486e-07
0.000128148
4.59353e-07
0.000128065
4.40572e-07
0.000127985
4.21202e-07
0.000127909
4.01301e-07
0.000127837
3.80928e-07
0.000127768
3.60153e-07
0.000127704
3.39053e-07
0.000127643
3.17721e-07
0.000127586
2.96272e-07
0.000127533
2.74842e-07
0.000127484
2.53588e-07
0.000127439
2.32697e-07
0.000127397
2.12379e-07
0.000127358
1.92872e-07
0.000127322
1.74437e-07
0.000127289
1.57362e-07
0.000127259
1.41956e-07
0.00012723
1.28553e-07
0.000127204
1.17507e-07
0.000127178
1.09199e-07
0.000127152
1.04027e-07
0.000127126
1.02417e-07
0.0001271
1.04819e-07
0.000127071
1.11716e-07
0.000127039
1.23623e-07
0.000127004
1.41098e-07
0.000126964
1.6475e-07
0.000126918
1.95246e-07
0.000126864
2.33324e-07
0.000126801
2.79813e-07
0.000126728
3.35645e-07
0.000126642
4.01882e-07
0.000126543
4.79746e-07
0.000126427
5.70645e-07
0.000126294
6.76221e-07
0.000126139
7.98395e-07
0.000125961
9.39429e-07
0.000125757
1.102e-06
0.000125524
1.28929e-06
0.000125258
1.50509e-06
0.000124957
1.75393e-06
0.000124617
2.04124e-06
0.000124235
2.37353e-06
0.000123808
2.75857e-06
0.000123336
3.20562e-06
0.000122818
3.72564e-06
0.000122257
4.33136e-06
0.000121662
5.03728e-06
0.000121048
5.85924e-06
0.00012044
6.81327e-06
0.000119879
7.91325e-06
0.000119424
9.16651e-06
0.000119156
1.05661e-05
0.000119173
1.20787e-05
0.000119573
1.36287e-05
0.000120405
1.50812e-05
1.62397e-05
0.000121586
0.000139734
-6.21504e-08
0.000139747
-5.82166e-08
0.000139748
2.99174e-08
0.000139725
1.9588e-07
0.000139669
4.08626e-07
0.000139577
6.23371e-07
0.000139455
7.99368e-07
0.000139311
9.13517e-07
0.000139155
9.63679e-07
0.000138995
9.63017e-07
0.000138838
9.30854e-07
0.000138687
8.85062e-07
0.000138543
8.38124e-07
0.000138406
7.96585e-07
0.000138274
7.62409e-07
0.000138148
7.34871e-07
0.000138027
7.12147e-07
0.000137909
6.92316e-07
0.000137795
6.73831e-07
0.000137684
6.55632e-07
0.000137577
6.37093e-07
0.000137474
6.17894e-07
0.000137373
5.97911e-07
0.000137277
5.77124e-07
0.000137184
5.55574e-07
0.000137095
5.33318e-07
0.000137009
5.10423e-07
0.000136928
4.86954e-07
0.00013685
4.62989e-07
0.000136776
4.38605e-07
0.000136706
4.13899e-07
0.000136639
3.88985e-07
0.000136577
3.63999e-07
0.000136518
3.39104e-07
0.000136463
3.1449e-07
0.000136411
2.90376e-07
0.000136363
2.67014e-07
0.000136318
2.44684e-07
0.000136275
2.23694e-07
0.000136235
2.04383e-07
0.000136197
1.87114e-07
0.00013616
1.72278e-07
0.000136125
1.60293e-07
0.00013609
1.51599e-07
0.000136055
1.46663e-07
0.00013602
1.45979e-07
0.000135983
1.50071e-07
0.000135943
1.59495e-07
0.000135901
1.74845e-07
0.000135854
1.96763e-07
0.000135801
2.25937e-07
0.000135742
2.63127e-07
0.000135675
3.09162e-07
0.000135599
3.64967e-07
0.000135512
4.31572e-07
0.000135413
5.10146e-07
0.0001353
6.02012e-07
0.000135172
7.08681e-07
0.000135025
8.31893e-07
0.00013486
9.73655e-07
0.000134672
1.13629e-06
0.000134461
1.32251e-06
0.000134225
1.53545e-06
0.00013396
1.77879e-06
0.000133667
2.05678e-06
0.000133344
2.37439e-06
0.000132989
2.73733e-06
0.000132605
3.15217e-06
0.000132194
3.62633e-06
0.000131761
4.16805e-06
0.000131316
4.78623e-06
0.000130872
5.49e-06
0.000130453
6.28798e-06
0.000130088
7.18689e-06
0.000129821
8.18942e-06
0.000129706
9.29081e-06
0.000129808
1.04739e-05
0.000130192
1.17031e-05
0.000130912
1.29174e-05
0.000131975
1.40271e-05
1.49205e-05
0.000133303
0.000149522
-7.46076e-08
0.000149537
-7.35119e-08
0.000149542
2.51857e-08
0.000149524
2.14749e-07
0.000149472
4.60489e-07
0.000149385
7.11356e-07
0.000149264
9.20061e-07
0.000149119
1.05888e-06
0.00014896
1.12396e-06
0.000148794
1.1293e-06
0.000148629
1.09651e-06
0.000148469
1.0461e-06
0.000148316
9.92767e-07
0.000148169
9.44515e-07
0.000148029
9.04087e-07
0.000147894
8.7103e-07
0.000147765
8.435e-07
0.00014764
8.19421e-07
0.000147519
7.97069e-07
0.000147401
7.75237e-07
0.000147288
7.53185e-07
0.000147178
7.30519e-07
0.000147072
7.07074e-07
0.000146969
6.8281e-07
0.000146871
6.57757e-07
0.000146776
6.31973e-07
0.000146685
6.0553e-07
0.000146597
5.78507e-07
0.000146514
5.50988e-07
0.000146434
5.23068e-07
0.000146358
4.94863e-07
0.000146286
4.66506e-07
0.000146218
4.38158e-07
0.000146153
4.10009e-07
0.000146091
3.82282e-07
0.000146032
3.55231e-07
0.000145977
3.29146e-07
0.000145924
3.04349e-07
0.000145874
2.81195e-07
0.000145825
2.60071e-07
0.000145779
2.41392e-07
0.000145733
2.25606e-07
0.000145688
2.13184e-07
0.000145643
2.04626e-07
0.000145598
2.00462e-07
0.000145551
2.01249e-07
0.000145503
2.07572e-07
0.000145451
2.20056e-07
0.000145395
2.3936e-07
0.000145335
2.66193e-07
0.000145269
3.01314e-07
0.000145196
3.45545e-07
0.000145115
3.99785e-07
0.000145025
4.65022e-07
0.000144924
5.42347e-07
0.000144811
6.32979e-07
0.000144685
7.38284e-07
0.000144543
8.598e-07
0.000144386
9.99266e-07
0.000144211
1.15866e-06
0.000144017
1.34021e-06
0.000143804
1.54647e-06
0.000143569
1.78033e-06
0.000143313
2.04505e-06
0.000143036
2.34431e-06
0.000142738
2.68221e-06
0.000142422
3.06328e-06
0.000142092
3.4924e-06
0.000141754
3.97475e-06
0.000141416
4.51559e-06
0.000141093
5.11991e-06
0.000140801
5.79195e-06
0.000140564
6.53438e-06
0.000140414
7.34721e-06
0.000140387
8.22615e-06
0.000140527
9.16059e-06
0.00014088
1.0131e-05
0.000141486
1.11067e-05
0.000142369
1.20435e-05
0.000143521
1.28853e-05
1.35701e-05
0.00014488
0.000159996
-8.82388e-08
0.000160014
-9.1489e-08
0.000160023
1.61311e-08
0.00016001
2.2785e-07
0.000159965
5.05923e-07
0.000159883
7.93503e-07
0.000159767
1.03682e-06
0.000159623
1.20318e-06
0.000159461
1.28637e-06
0.000159291
1.30064e-06
0.000159119
1.26948e-06
0.00015895
1.2159e-06
0.000158787
1.15683e-06
0.000158631
1.10196e-06
0.000158482
1.05499e-06
0.000158339
1.01594e-06
0.000158201
9.83062e-07
0.000158068
9.54218e-07
0.00015794
9.27549e-07
0.000157816
9.01707e-07
0.000157696
8.75842e-07
0.00015758
8.49481e-07
0.000157468
8.22405e-07
0.00015736
7.94546e-07
0.000157255
7.65918e-07
0.000157155
7.36576e-07
0.000157058
7.06593e-07
0.000156965
6.76058e-07
0.000156876
6.45068e-07
0.00015679
6.13734e-07
0.000156708
5.82188e-07
0.00015663
5.50588e-07
0.000156555
5.19118e-07
0.000156483
4.87998e-07
0.000156415
4.57479e-07
0.000156349
4.27855e-07
0.000156285
3.99449e-07
0.000156225
3.72625e-07
0.000156166
3.47782e-07
0.000156108
3.25351e-07
0.000156052
3.05796e-07
0.000155996
2.89612e-07
0.00015594
2.77324e-07
0.000155884
2.69484e-07
0.000155827
2.66673e-07
0.000155768
2.69499e-07
0.000155706
2.78607e-07
0.000155641
2.94666e-07
0.000155572
3.18393e-07
0.000155497
3.50539e-07
0.000155417
3.91912e-07
0.000155329
4.43374e-07
0.000155233
5.05855e-07
0.000155128
5.80368e-07
0.000155013
6.68017e-07
0.000154886
7.70014e-07
0.000154748
8.87696e-07
0.000154596
1.02254e-06
0.000154429
1.17618e-06
0.000154248
1.35045e-06
0.000154052
1.54733e-06
0.00015384
1.76906e-06
0.000153613
2.01807e-06
0.000153372
2.29701e-06
0.000153119
2.60873e-06
0.000152856
2.95624e-06
0.000152587
3.34264e-06
0.000152319
3.77103e-06
0.000152061
4.24431e-06
0.000151822
4.76494e-06
0.000151618
5.33461e-06
0.000151467
5.95376e-06
0.000151391
6.62098e-06
0.000151417
7.33219e-06
0.000151574
8.07982e-06
0.000151893
8.85171e-06
0.000152404
9.63019e-06
0.00015313
1.03914e-05
0.000154078
1.11057e-05
0.000155235
1.17389e-05
1.2257e-05
0.000156558
0.000171203
-1.03095e-07
0.000171224
-1.12341e-07
0.000171238
2.27292e-09
0.000171232
2.34296e-07
0.000171194
5.43596e-07
0.00017112
8.68116e-07
0.00017101
1.14778e-06
0.000170869
1.34457e-06
0.000170707
1.44931e-06
0.000170532
1.47577e-06
0.000170354
1.44888e-06
0.000170177
1.39389e-06
0.000170005
1.33004e-06
0.00016984
1.26881e-06
0.000169681
1.21513e-06
0.000169529
1.16965e-06
0.000169383
1.1309e-06
0.000169243
1.09676e-06
0.000169108
1.0653e-06
0.000168977
1.03506e-06
0.000168851
1.00507e-06
0.000168729
9.74782e-07
0.000168611
9.43911e-07
0.000168497
9.12351e-07
0.000168386
8.80095e-07
0.00016828
8.4719e-07
0.000168178
8.1371e-07
0.000168079
7.79749e-07
0.000167984
7.45416e-07
0.000167892
7.10838e-07
0.000167804
6.76168e-07
0.000167719
6.41584e-07
0.000167637
6.07299e-07
0.000167558
5.73557e-07
0.000167482
5.40644e-07
0.000167408
5.08882e-07
0.000167336
4.78633e-07
0.000167267
4.50297e-07
0.000167198
4.24311e-07
0.000167131
4.01147e-07
0.000167064
3.81311e-07
0.000166997
3.6534e-07
0.00016693
3.53799e-07
0.000166861
3.47285e-07
0.000166791
3.4642e-07
0.000166718
3.51853e-07
0.000166643
3.64261e-07
0.000166563
3.84356e-07
0.000166479
4.1288e-07
0.000166389
4.5061e-07
0.000166294
4.9837e-07
0.000166191
5.57029e-07
0.00016608
6.27514e-07
0.00016596
7.10815e-07
0.000165832
8.07994e-07
0.000165693
9.20194e-07
0.000165543
1.04865e-06
0.000165382
1.1947e-06
0.00016521
1.35977e-06
0.000165027
1.54542e-06
0.000164832
1.75329e-06
0.000164628
1.98516e-06
0.000164415
2.24286e-06
0.000164195
2.52829e-06
0.000163972
2.84336e-06
0.00016375
3.18992e-06
0.000163535
3.56964e-06
0.000163333
3.98393e-06
0.000163155
4.43371e-06
0.000163013
4.91921e-06
0.000162919
5.43967e-06
0.000162891
5.99304e-06
0.000162948
6.57555e-06
0.00016311
7.18132e-06
0.0001634
7.80196e-06
0.000163836
8.4262e-06
0.000164438
9.03975e-06
0.000165215
9.62543e-06
0.000166168
1.01639e-05
0.000167282
1.06349e-05
1.102e-05
0.00016853
0.000183195
-1.19188e-07
0.000183219
-1.36139e-07
0.000183238
-1.66196e-08
0.000183239
2.33596e-07
0.00018321
5.72656e-07
0.000183145
9.33981e-07
0.000183042
1.25144e-06
0.000182905
1.48143e-06
0.000182744
1.61118e-06
0.000182568
1.65329e-06
0.000182384
1.63357e-06
0.0001822
1.57923e-06
0.000182019
1.51179e-06
0.000181845
1.44469e-06
0.000181678
1.38427e-06
0.000181517
1.33203e-06
0.000181363
1.28694e-06
0.000181215
1.24702e-06
0.000181073
1.21032e-06
0.000180936
1.1753e-06
0.000180803
1.14089e-06
0.000180675
1.10645e-06
0.000180551
1.07164e-06
0.000180431
1.0363e-06
0.000180315
1.0004e-06
0.000180202
9.6396e-07
0.000180094
9.27066e-07
0.000179989
8.8981e-07
0.000179888
8.52314e-07
0.00017979
8.14722e-07
0.000179695
7.77205e-07
0.000179603
7.39964e-07
0.000179514
7.03234e-07
0.000179427
6.67289e-07
0.000179343
6.32443e-07
0.00017926
5.99049e-07
0.000179179
5.67499e-07
0.0001791
5.38225e-07
0.000179021
5.11699e-07
0.000178943
4.88425e-07
0.000178864
4.68941e-07
0.000178785
4.53818e-07
0.000178705
4.43652e-07
0.000178623
4.39069e-07
0.000178539
4.40717e-07
0.000178452
4.49269e-07
0.000178362
4.65423e-07
0.000178267
4.89902e-07
0.000178167
5.23453e-07
0.000178062
5.66853e-07
0.000177951
6.20909e-07
0.000177833
6.8646e-07
0.000177708
7.64386e-07
0.000177575
8.55608e-07
0.000177434
9.61091e-07
0.000177284
1.08185e-06
0.000177126
1.21894e-06
0.000176959
1.37349e-06
0.000176784
1.54665e-06
0.000176603
1.7396e-06
0.000176415
1.95358e-06
0.000176222
2.1898e-06
0.000176028
2.44943e-06
0.000175835
2.7336e-06
0.000175648
3.04326e-06
0.000175471
3.37917e-06
0.000175311
3.74177e-06
0.000175176
4.13104e-06
0.000175076
4.54642e-06
0.000175021
4.98655e-06
0.000175024
5.44918e-06
0.000175098
5.93089e-06
0.000175259
6.42698e-06
0.000175521
6.93126e-06
0.000175899
7.43596e-06
0.000176406
7.93175e-06
0.000177049
8.40784e-06
0.000177834
8.85241e-06
0.000178757
9.25316e-06
0.000179805
9.59832e-06
9.87787e-06
0.000180959
0.000196027
-1.36489e-07
0.000196054
-1.62818e-07
0.000196078
-4.04909e-08
0.000196086
2.25689e-07
0.000196066
5.92823e-07
0.00019601
9.90479e-07
0.000195915
1.34682e-06
0.000195785
1.61249e-06
0.000195626
1.77054e-06
0.000195449
1.83176e-06
0.000195261
1.82221e-06
0.000195071
1.77081e-06
0.000194883
1.70122e-06
0.0001947
1.62897e-06
0.000194524
1.56198e-06
0.000194356
1.50282e-06
0.000194194
1.45104e-06
0.000194039
1.40493e-06
0.000193889
1.36259e-06
0.000193745
1.32245e-06
0.000193606
1.28336e-06
0.000193471
1.24459e-06
0.000193341
1.20573e-06
0.000193215
1.16657e-06
0.000193093
1.12704e-06
0.000192975
1.08715e-06
0.00019286
1.04698e-06
0.000192749
1.00662e-06
0.000192641
9.66203e-07
0.000192536
9.25888e-07
0.000192434
8.85864e-07
0.000192334
8.46354e-07
0.000192237
8.07617e-07
0.000192142
7.69952e-07
0.000192048
7.33697e-07
0.000191956
6.9923e-07
0.000191866
6.66973e-07
0.000191775
6.37382e-07
0.000191685
6.10952e-07
0.000191595
5.88212e-07
0.000191504
5.69726e-07
0.000191412
5.5608e-07
0.000191318
5.47891e-07
0.000191222
5.45797e-07
0.000191123
5.50456e-07
0.000191021
5.62548e-07
0.000190915
5.82765e-07
0.000190804
6.11819e-07
0.000190689
6.50437e-07
0.000190568
6.99359e-07
0.000190442
7.59345e-07
0.000190309
8.31167e-07
0.000190171
9.15615e-07
0.000190025
1.01349e-06
0.000189873
1.12562e-06
0.000189715
1.25283e-06
0.000189551
1.39595e-06
0.000189382
1.55582e-06
0.000189208
1.73327e-06
0.000189032
1.92908e-06
0.000188855
2.14399e-06
0.000188679
2.37866e-06
0.000188508
2.63362e-06
0.000188346
2.90923e-06
0.000188196
3.20564e-06
0.000188066
3.52267e-06
0.000187961
3.85978e-06
0.00018789
4.21596e-06
0.00018786
4.58963e-06
0.000187881
4.97855e-06
0.000187963
5.3797e-06
0.000188118
5.78924e-06
0.000188356
6.20243e-06
0.000188686
6.61365e-06
0.000189119
7.01638e-06
0.00018966
7.40342e-06
0.000190313
7.76703e-06
0.000191079
8.09931e-06
0.000191952
8.39261e-06
0.000192923
8.64013e-06
8.83653e-06
0.000193976
0.000209757
-1.54928e-07
0.000209787
-1.92191e-07
0.000209816
-6.90206e-08
0.000209831
2.10966e-07
0.00020982
6.04391e-07
0.000209773
1.03764e-06
0.000209687
1.43355e-06
0.000209563
1.73694e-06
0.000209408
1.92625e-06
0.000209231
2.0098e-06
0.000209041
2.01341e-06
0.000208846
1.96731e-06
0.000208652
1.89722e-06
0.000208461
1.82076e-06
0.000208278
1.74761e-06
0.000208101
1.68156e-06
0.000207932
1.62291e-06
0.000207769
1.57033e-06
0.000207613
1.52208e-06
0.000207462
1.47657e-06
0.000207316
1.4326e-06
0.000207175
1.38938e-06
0.000207038
1.34641e-06
0.000206906
1.30345e-06
0.000206778
1.26038e-06
0.000206653
1.21719e-06
0.000206531
1.17394e-06
0.000206413
1.13074e-06
0.000206298
1.08771e-06
0.000206185
1.04503e-06
0.000206075
1.00291e-06
0.000205967
9.61582e-07
0.000205861
9.21337e-07
0.000205757
8.8249e-07
0.000205653
8.454e-07
0.000205551
8.10466e-07
0.000205449
7.78127e-07
0.000205347
7.48859e-07
0.000205244
7.23171e-07
0.000205141
7.01607e-07
0.000205036
6.84736e-07
0.00020493
6.73156e-07
0.000204821
6.67481e-07
0.00020471
6.68348e-07
0.000204596
6.76405e-07
0.000204478
6.92311e-07
0.000204356
7.16735e-07
0.00020423
7.50351e-07
0.000204099
7.93834e-07
0.000203963
8.47861e-07
0.000203822
9.13108e-07
0.000203676
9.90242e-07
0.000203525
1.07993e-06
0.000203369
1.18281e-06
0.000203208
1.29952e-06
0.000203044
1.43068e-06
0.000202877
1.57684e-06
0.000202708
1.73854e-06
0.000202539
1.91623e-06
0.000202372
2.1103e-06
0.000202209
2.32101e-06
0.000202053
2.54849e-06
0.000201908
2.7927e-06
0.000201778
3.05338e-06
0.000201668
3.32998e-06
0.000201583
3.62169e-06
0.000201529
3.92727e-06
0.000201514
4.2451e-06
0.000201545
4.57307e-06
0.000201629
4.90855e-06
0.000201774
5.24839e-06
0.000201989
5.58888e-06
0.000202279
5.92577e-06
0.000202652
6.25437e-06
0.000203113
6.56958e-06
0.000203664
6.8661e-06
0.000204306
7.13858e-06
0.000205037
7.38189e-06
0.000205851
7.59134e-06
0.000206742
7.76306e-06
7.89432e-06
0.000207697
0.00022445
-1.74402e-07
0.000224482
-2.23965e-07
0.000224514
-1.01685e-07
0.000224536
1.90159e-07
0.000224532
6.0815e-07
0.000224494
1.07608e-06
0.000224417
1.51184e-06
0.0002243
1.85447e-06
0.00022415
2.07748e-06
0.000223974
2.18624e-06
0.000223783
2.20581e-06
0.000223584
2.16737e-06
0.000223385
2.09855e-06
0.000223188
2.01905e-06
0.000222998
1.94038e-06
0.000222814
1.86771e-06
0.000222637
1.80221e-06
0.000222467
1.74307e-06
0.000222304
1.68875e-06
0.000222146
1.63774e-06
0.000221993
1.58881e-06
0.000221846
1.5411e-06
0.000221703
1.49407e-06
0.000221563
1.4474e-06
0.000221428
1.40094e-06
0.000221296
1.35467e-06
0.000221167
1.30863e-06
0.000221041
1.2629e-06
0.000220918
1.21765e-06
0.000220797
1.17303e-06
0.000220678
1.12929e-06
0.000220561
1.08667e-06
0.000220445
1.04547e-06
0.00022033
1.00603e-06
0.000220215
9.68714e-07
0.000220101
9.33941e-07
0.000219987
9.0216e-07
0.000219872
8.73851e-07
0.000219756
8.49531e-07
0.000219638
8.29741e-07
0.000219519
8.15048e-07
0.000219398
8.06037e-07
0.000219273
8.03309e-07
0.000219146
8.07477e-07
0.000219016
8.19157e-07
0.000218882
8.38971e-07
0.000218744
8.67534e-07
0.000218602
9.05456e-07
0.000218455
9.53335e-07
0.000218305
1.01175e-06
0.00021815
1.08127e-06
0.000217992
1.16243e-06
0.00021783
1.25573e-06
0.000217666
1.36163e-06
0.000217499
1.48055e-06
0.000217331
1.61286e-06
0.000217164
1.75884e-06
0.000216999
1.91871e-06
0.000216837
2.09258e-06
0.000216682
2.28044e-06
0.000216535
2.48214e-06
0.000216402
2.69737e-06
0.000216284
2.92561e-06
0.000216186
3.16613e-06
0.000216113
3.41794e-06
0.00021607
3.67976e-06
0.000216062
3.95e-06
0.000216096
4.22676e-06
0.000216176
4.50775e-06
0.000216309
4.79038e-06
0.000216501
5.07167e-06
0.000216756
5.34838e-06
0.00021708
5.61698e-06
0.000217475
5.87379e-06
0.000217944
6.115e-06
0.000218488
6.33688e-06
0.000219105
6.53584e-06
0.000219793
6.70861e-06
0.000220546
6.85241e-06
0.000221358
6.96508e-06
7.04531e-06
0.000222221
0.000240171
-1.94792e-07
0.000240205
-2.57794e-07
0.000240241
-1.37824e-07
0.000240267
1.64227e-07
0.000240271
6.05218e-07
0.000240241
1.10681e-06
0.000240171
1.58236e-06
0.000240061
1.96523e-06
0.000239915
2.22382e-06
0.000239743
2.36018e-06
0.000239552
2.39821e-06
0.000239351
2.36969e-06
0.000239147
2.30396e-06
0.000238945
2.22274e-06
0.000238748
2.13942e-06
0.000238558
2.06063e-06
0.000238374
1.98855e-06
0.000238197
1.92295e-06
0.000238027
1.8626e-06
0.000237862
1.8061e-06
0.000237703
1.75224e-06
0.000237548
1.70013e-06
0.000237398
1.64916e-06
0.000237251
1.59898e-06
0.000237108
1.54939e-06
0.000236968
1.50035e-06
0.000236831
1.45187e-06
0.000236697
1.40404e-06
0.000236564
1.35701e-06
0.000236434
1.31097e-06
0.000236305
1.26614e-06
0.000236177
1.2228e-06
0.00023605
1.18125e-06
0.000235923
1.14183e-06
0.000235796
1.10492e-06
0.000235669
1.07094e-06
0.000235541
1.04034e-06
0.000235412
1.0136e-06
0.000235282
9.91214e-07
0.000235149
9.73726e-07
0.000235014
9.61673e-07
0.000234877
9.55617e-07
0.000234736
9.56124e-07
0.000234593
9.63763e-07
0.000234446
9.791e-07
0.000234295
1.00269e-06
0.000234141
1.03508e-06
0.000233984
1.07679e-06
0.000233823
1.12832e-06
0.000233659
1.19012e-06
0.000233492
1.26262e-06
0.000233323
1.34621e-06
0.000233152
1.4412e-06
0.000232981
1.54787e-06
0.000232811
1.6664e-06
0.000232642
1.79692e-06
0.000232477
1.93944e-06
0.000232317
2.09388e-06
0.000232166
2.26005e-06
0.000232024
2.4376e-06
0.000231896
2.62605e-06
0.000231785
2.82475e-06
0.000231693
3.03285e-06
0.000231626
3.24932e-06
0.000231587
3.47288e-06
0.000231581
3.70207e-06
0.000231612
3.93515e-06
0.000231684
4.17018e-06
0.000231803
4.40499e-06
0.000231972
4.6372e-06
0.000232195
4.86426e-06
0.000232476
5.08349e-06
0.000232817
5.29212e-06
0.000233219
5.48739e-06
0.000233683
5.66658e-06
0.000234208
5.82713e-06
0.000234792
5.96672e-06
0.000235433
6.08332e-06
0.000236125
6.17534e-06
0.000236864
6.24165e-06
6.28171e-06
0.000237642
0.000256993
-2.15957e-07
0.000257028
-2.93296e-07
0.000257068
-1.76728e-07
0.000257098
1.34225e-07
0.000257107
5.96885e-07
0.000257083
1.13112e-06
0.00025702
1.64611e-06
0.000256916
2.06973e-06