/*--------------------------------*- C++ -*----------------------------------*\
| =========                 |                                                 |
| \\      /  F ield         | OpenFOAM: The Open Source CFD Toolbox           |
|  \\    /   O peration     | Version:  4.1                                   |
|   \\  /    A nd           | Web:      www.OpenFOAM.org                      |
|    \\/     M anipulation  |                                                 |
\*---------------------------------------------------------------------------*/
FoamFile
{
    version     2.0;
    format      ascii;
    class       volScalarField;
    location    "0.8";
    object      T;
}
// * * * * * * * * * * * * * * * * * * * * * * * * * * * * * * * * * * * * * //

dimensions      [0 0 0 1 0 0 0];

internalField   nonuniform List<scalar> 
12013
(
300
300
300.001
300.001
300.001
300.001
300.002
300.002
300.003
300.003
300.004
300.005
300.006
300.007
300.009
300.01
300.012
300.014
300.016
300.019
300.022
300.025
300.029
300.032
300.037
300.042
300.047
300.053
300.059
300.066
300.074
300.082
300.09
300.1
300.11
300.121
300.132
300.145
300.158
300.172
300.187
300.202
300.219
300.236
300.255
300.274
300.295
300.316
300.339
300.362
300.387
300.412
300.439
300.467
300.497
300.527
300.559
300.592
300.626
300.662
300.699
300.737
300.777
300.819
300.862
300.907
300.954
301.002
301.053
301.106
301.161
301.219
301.279
301.343
301.41
301.481
301.558
301.64
301.729
301.83
301.946
300
300
300.001
300.001
300.001
300.001
300.002
300.002
300.003
300.003
300.004
300.005
300.006
300.007
300.009
300.01
300.012
300.014
300.016
300.019
300.022
300.025
300.029
300.032
300.037
300.042
300.047
300.053
300.059
300.066
300.074
300.082
300.09
300.1
300.11
300.121
300.132
300.145
300.158
300.172
300.187
300.202
300.219
300.236
300.255
300.274
300.295
300.316
300.338
300.362
300.387
300.412
300.439
300.467
300.496
300.527
300.558
300.591
300.626
300.661
300.698
300.737
300.777
300.818
300.861
300.906
300.953
301.001
301.052
301.105
301.16
301.217
301.277
301.34
301.407
301.478
301.553
301.633
301.72
301.814
301.918
300
300
300.001
300.001
300.001
300.001
300.002
300.002
300.003
300.003
300.004
300.005
300.006
300.007
300.009
300.01
300.012
300.014
300.016
300.019
300.022
300.025
300.028
300.032
300.037
300.042
300.047
300.053
300.059
300.066
300.074
300.082
300.09
300.1
300.11
300.121
300.132
300.145
300.158
300.172
300.186
300.202
300.219
300.236
300.255
300.274
300.294
300.316
300.338
300.362
300.386
300.412
300.439
300.467
300.496
300.526
300.558
300.591
300.625
300.66
300.697
300.736
300.775
300.817
300.86
300.904
300.951
300.999
301.049
301.102
301.156
301.213
301.273
301.335
301.4
301.469
301.542
301.619
301.701
301.788
301.879
300
300
300.001
300.001
300.001
300.001
300.002
300.002
300.003
300.003
300.004
300.005
300.006
300.007
300.009
300.01
300.012
300.014
300.016
300.019
300.022
300.025
300.028
300.032
300.037
300.042
300.047
300.053
300.059
300.066
300.073
300.082
300.09
300.1
300.11
300.121
300.132
300.144
300.157
300.171
300.186
300.202
300.218
300.236
300.254
300.274
300.294
300.315
300.338
300.361
300.386
300.411
300.438
300.466
300.495
300.525
300.557
300.589
300.623
300.659
300.695
300.734
300.773
300.814
300.857
300.901
300.947
300.995
301.045
301.097
301.15
301.206
301.265
301.326
301.39
301.456
301.526
301.599
301.675
301.754
301.835
300
300
300.001
300.001
300.001
300.001
300.002
300.002
300.003
300.003
300.004
300.005
300.006
300.007
300.009
300.01
300.012
300.014
300.016
300.019
300.022
300.025
300.028
300.032
300.037
300.042
300.047
300.053
300.059
300.066
300.073
300.081
300.09
300.099
300.11
300.12
300.132
300.144
300.157
300.171
300.186
300.201
300.218
300.235
300.254
300.273
300.293
300.314
300.337
300.36
300.385
300.41
300.437
300.464
300.493
300.523
300.555
300.587
300.621
300.656
300.693
300.731
300.77
300.811
300.853
300.897
300.943
300.99
301.039
301.09
301.142
301.197
301.254
301.313
301.375
301.439
301.505
301.573
301.644
301.716
301.788
300
300
300.001
300.001
300.001
300.001
300.002
300.002
300.003
300.003
300.004
300.005
300.006
300.007
300.009
300.01
300.012
300.014
300.016
300.019
300.022
300.025
300.028
300.032
300.037
300.042
300.047
300.053
300.059
300.066
300.073
300.081
300.09
300.099
300.109
300.12
300.132
300.144
300.157
300.171
300.185
300.201
300.217
300.235
300.253
300.272
300.292
300.313
300.336
300.359
300.383
300.409
300.435
300.463
300.491
300.521
300.552
300.585
300.618
300.653
300.689
300.727
300.766
300.806
300.848
300.891
300.936
300.982
301.03
301.08
301.132
301.185
301.24
301.297
301.356
301.416
301.479
301.542
301.607
301.673
301.738
300
300
300
300.001
300.001
300.001
300.002
300.002
300.003
300.003
300.004
300.005
300.006
300.007
300.009
300.01
300.012
300.014
300.016
300.019
300.022
300.025
300.028
300.032
300.037
300.041
300.047
300.052
300.059
300.066
300.073
300.081
300.09
300.099
300.109
300.12
300.131
300.143
300.156
300.17
300.185
300.2
300.216
300.234
300.252
300.271
300.291
300.312
300.334
300.357
300.381
300.407
300.433
300.46
300.489
300.519
300.549
300.581
300.615
300.649
300.685
300.722
300.76
300.8
300.841
300.883
300.927
300.973
301.02
301.068
301.118
301.169
301.222
301.277
301.333
301.39
301.448
301.507
301.567
301.627
301.686
300
300
300
300.001
300.001
300.001
300.002
300.002
300.003
300.003
300.004
300.005
300.006
300.007
300.008
300.01
300.012
300.014
300.016
300.019
300.021
300.025
300.028
300.032
300.036
300.041
300.047
300.052
300.059
300.065
300.073
300.081
300.089
300.099
300.109
300.119
300.131
300.143
300.156
300.169
300.184
300.199
300.215
300.233
300.251
300.27
300.29
300.311
300.332
300.355
300.379
300.404
300.43
300.457
300.486
300.515
300.545
300.577
300.61
300.644
300.679
300.715
300.753
300.792
300.832
300.874
300.916
300.961
301.006
301.053
301.101
301.15
301.201
301.253
301.305
301.359
301.413
301.468
301.523
301.578
301.632
300
300
300
300.001
300.001
300.001
300.002
300.002
300.003
300.003
300.004
300.005
300.006
300.007
300.008
300.01
300.012
300.014
300.016
300.019
300.021
300.025
300.028
300.032
300.036
300.041
300.046
300.052
300.058
300.065
300.072
300.08
300.089
300.098
300.108
300.119
300.13
300.142
300.155
300.168
300.183
300.198
300.214
300.231
300.249
300.268
300.288
300.308
300.33
300.353
300.376
300.401
300.427
300.454
300.481
300.51
300.54
300.572
300.604
300.637
300.672
300.707
300.744
300.782
300.821
300.862
300.903
300.946
300.99
301.035
301.081
301.128
301.176
301.225
301.275
301.325
301.375
301.426
301.476
301.526
301.576
300
300
300
300.001
300.001
300.001
300.002
300.002
300.003
300.003
300.004
300.005
300.006
300.007
300.008
300.01
300.012
300.014
300.016
300.018
300.021
300.024
300.028
300.032
300.036
300.041
300.046
300.052
300.058
300.065
300.072
300.08
300.088
300.097
300.107
300.118
300.129
300.141
300.154
300.167
300.181
300.197
300.213
300.229
300.247
300.266
300.285
300.306
300.327
300.35
300.373
300.397
300.423
300.449
300.476
300.505
300.534
300.565
300.597
300.629
300.663
300.698
300.734
300.771
300.809
300.848
300.888
300.929
300.971
301.014
301.058
301.102
301.148
301.194
301.24
301.287
301.334
301.38
301.427
301.473
301.518
300
300
300
300.001
300.001
300.001
300.002
300.002
300.003
300.003
300.004
300.005
300.006
300.007
300.008
300.01
300.012
300.014
300.016
300.018
300.021
300.024
300.028
300.032
300.036
300.041
300.046
300.051
300.057
300.064
300.071
300.079
300.088
300.097
300.106
300.117
300.128
300.14
300.152
300.166
300.18
300.195
300.211
300.227
300.245
300.263
300.282
300.303
300.324
300.346
300.369
300.393
300.418
300.444
300.47
300.498
300.527
300.557
300.588
300.62
300.652
300.686
300.721
300.757
300.793
300.831
300.87
300.909
300.949
300.99
301.031
301.074
301.116
301.159
301.202
301.246
301.289
301.332
301.375
301.417
301.459
300
300
300
300.001
300.001
300.001
300.002
300.002
300.003
300.003
300.004
300.005
300.006
300.007
300.008
300.01
300.012
300.013
300.016
300.018
300.021
300.024
300.028
300.031
300.036
300.04
300.045
300.051
300.057
300.064
300.071
300.079
300.087
300.096
300.105
300.116
300.127
300.138
300.151
300.164
300.178
300.193
300.208
300.225
300.242
300.26
300.279
300.299
300.32
300.341
300.364
300.387
300.412
300.437
300.463
300.49
300.518
300.547
300.577
300.608
300.64
300.673
300.706
300.741
300.776
300.812
300.849
300.886
300.924
300.963
301.002
301.041
301.081
301.121
301.162
301.202
301.242
301.281
301.321
301.36
301.398
300
300
300
300.001
300.001
300.001
300.002
300.002
300.003
300.003
300.004
300.005
300.006
300.007
300.008
300.01
300.011
300.013
300.016
300.018
300.021
300.024
300.027
300.031
300.035
300.04
300.045
300.05
300.056
300.063
300.07
300.078
300.086
300.095
300.104
300.114
300.125
300.137
300.149
300.162
300.176
300.19
300.205
300.222
300.239
300.256
300.275
300.294
300.315
300.336
300.358
300.381
300.404
300.429
300.455
300.481
300.508
300.536
300.565
300.595
300.626
300.657
300.689
300.722
300.756
300.79
300.825
300.86
300.896
300.933
300.969
301.006
301.044
301.081
301.118
301.155
301.192
301.229
301.265
301.3
301.335
300
300
300
300.001
300.001
300.001
300.002
300.002
300.003
300.003
300.004
300.005
300.006
300.007
300.008
300.01
300.011
300.013
300.015
300.018
300.021
300.024
300.027
300.031
300.035
300.039
300.044
300.05
300.056
300.062
300.069
300.077
300.085
300.093
300.103
300.113
300.123
300.135
300.147
300.159
300.173
300.187
300.202
300.218
300.235
300.252
300.27
300.289
300.309
300.329
300.351
300.373
300.396
300.42
300.445
300.47
300.497
300.524
300.552
300.58
300.61
300.64
300.67
300.702
300.733
300.766
300.799
300.832
300.866
300.9
300.934
300.969
301.003
301.037
301.072
301.106
301.14
301.174
301.207
301.239
301.271
300
300
300
300.001
300.001
300.001
300.002
300.002
300.003
300.003
300.004
300.005
300.006
300.007
300.008
300.01
300.011
300.013
300.015
300.018
300.02
300.023
300.027
300.03
300.034
300.039
300.044
300.049
300.055
300.061
300.068
300.075
300.083
300.092
300.101
300.111
300.121
300.132
300.144
300.157
300.17
300.184
300.198
300.214
300.23
300.247
300.264
300.283
300.302
300.322
300.343
300.364
300.387
300.41
300.434
300.458
300.483
300.509
300.536
300.563
300.591
300.62
300.649
300.678
300.708
300.739
300.77
300.801
300.833
300.864
300.896
300.928
300.96
300.992
301.023
301.055
301.086
301.117
301.147
301.177
301.206
300
300
300
300.001
300.001
300.001
300.002
300.002
300.003
300.003
300.004
300.005
300.006
300.007
300.008
300.009
300.011
300.013
300.015
300.017
300.02
300.023
300.026
300.03
300.034
300.038
300.043
300.048
300.054
300.06
300.067
300.074
300.082
300.09
300.099
300.109
300.119
300.13
300.141
300.153
300.166
300.18
300.194
300.209
300.224
300.241
300.258
300.276
300.294
300.314
300.334
300.354
300.376
300.398
300.421
300.444
300.468
300.493
300.518
300.544
300.571
300.598
300.625
300.653
300.681
300.71
300.738
300.768
300.797
300.826
300.856
300.885
300.914
300.944
300.973
301.002
301.03
301.058
301.086
301.113
301.14
300
300
300
300.001
300.001
300.001
300.002
300.002
300.003
300.003
300.004
300.005
300.005
300.007
300.008
300.009
300.011
300.013
300.015
300.017
300.02
300.022
300.026
300.029
300.033
300.037
300.042
300.047
300.053
300.059
300.065
300.072
300.08
300.088
300.097
300.106
300.116
300.127
300.138
300.149
300.162
300.175
300.189
300.203
300.218
300.234
300.251
300.268
300.286
300.304
300.323
300.343
300.363
300.385
300.406
300.429
300.451
300.475
300.499
300.523
300.548
300.573
300.599
300.625
300.651
300.678
300.705
300.732
300.759
300.786
300.813
300.84
300.867
300.894
300.92
300.947
300.973
300.998
301.024
301.049
301.073
300
300
300
300.001
300.001
300.001
300.002
300.002
300.002
300.003
300.004
300.004
300.005
300.006
300.008
300.009
300.011
300.012
300.014
300.017
300.019
300.022
300.025
300.029
300.032
300.036
300.041
300.046
300.051
300.057
300.064
300.071
300.078
300.086
300.094
300.103
300.113
300.123
300.134
300.145
300.157
300.17
300.183
300.197
300.211
300.226
300.242
300.259
300.276
300.293
300.312
300.33
300.35
300.37
300.39
300.411
300.433
300.455
300.477
300.5
300.523
300.547
300.571
300.595
300.619
300.644
300.669
300.694
300.718
300.743
300.768
300.793
300.818
300.842
300.866
300.89
300.914
300.937
300.96
300.983
301.005
300
300
300
300.001
300.001
300.001
300.002
300.002
300.002
300.003
300.004
300.004
300.005
300.006
300.007
300.009
300.01
300.012
300.014
300.016
300.019
300.021
300.024
300.028
300.031
300.035
300.04
300.045
300.05
300.056
300.062
300.068
300.076
300.083
300.091
300.1
300.109
300.119
300.129
300.14
300.152
300.164
300.176
300.19
300.203
300.218
300.233
300.248
300.265
300.281
300.299
300.316
300.335
300.353
300.373
300.392
300.413
300.433
300.454
300.475
300.497
300.519
300.541
300.563
300.586
300.608
300.631
300.654
300.676
300.699
300.722
300.744
300.767
300.789
300.811
300.833
300.854
300.875
300.896
300.917
300.937
300
300
300
300.001
300.001
300.001
300.001
300.002
300.002
300.003
300.003
300.004
300.005
300.006
300.007
300.009
300.01
300.012
300.014
300.016
300.018
300.021
300.024
300.027
300.03
300.034
300.039
300.043
300.048
300.054
300.06
300.066
300.073
300.08
300.088
300.096
300.105
300.114
300.124
300.135
300.146
300.157
300.169
300.182
300.195
300.208
300.223
300.237
300.252
300.268
300.284
300.301
300.318
300.336
300.354
300.372
300.391
300.41
300.429
300.449
300.469
300.489
300.509
300.529
300.55
300.571
300.591
300.612
300.633
300.653
300.674
300.694
300.715
300.735
300.754
300.774
300.794
300.813
300.832
300.85
300.868
300
300
300
300.001
300.001
300.001
300.001
300.002
300.002
300.003
300.003
300.004
300.005
300.006
300.007
300.008
300.01
300.011
300.013
300.015
300.017
300.02
300.023
300.026
300.029
300.033
300.037
300.042
300.046
300.052
300.057
300.063
300.07
300.077
300.084
300.092
300.101
300.109
300.119
300.129
300.139
300.15
300.161
300.173
300.185
300.198
300.211
300.225
300.239
300.254
300.269
300.284
300.3
300.317
300.333
300.35
300.367
300.385
300.403
300.421
300.439
300.457
300.476
300.494
300.513
300.532
300.55
300.569
300.588
300.606
300.625
300.643
300.661
300.68
300.697
300.715
300.733
300.75
300.767
300.783
300.8
300
300
300
300.001
300.001
300.001
300.001
300.002
300.002
300.003
300.003
300.004
300.005
300.006
300.007
300.008
300.009
300.011
300.013
300.014
300.017
300.019
300.022
300.025
300.028
300.032
300.035
300.04
300.044
300.049
300.055
300.06
300.067
300.073
300.08
300.088
300.095
300.104
300.113
300.122
300.132
300.142
300.152
300.163
300.175
300.187
300.199
300.212
300.225
300.239
300.252
300.267
300.281
300.296
300.311
300.327
300.343
300.359
300.375
300.391
300.408
300.424
300.441
300.458
300.475
300.492
300.508
300.525
300.542
300.559
300.575
300.592
300.608
300.624
300.64
300.656
300.671
300.687
300.702
300.717
300.731
300
300
300
300.001
300.001
300.001
300.001
300.002
300.002
300.003
300.003
300.004
300.005
300.005
300.006
300.008
300.009
300.01
300.012
300.014
300.016
300.018
300.021
300.024
300.027
300.03
300.034
300.038
300.042
300.047
300.052
300.057
300.063
300.069
300.076
300.083
300.09
300.098
300.106
300.115
300.124
300.133
300.143
300.153
300.164
300.175
300.186
300.198
300.21
300.222
300.235
300.248
300.261
300.275
300.289
300.303
300.317
300.331
300.346
300.361
300.376
300.39
300.405
300.42
300.436
300.451
300.466
300.481
300.496
300.51
300.525
300.54
300.554
300.569
300.583
300.597
300.611
300.624
300.638
300.651
300.664
300
300
300
300.001
300.001
300.001
300.001
300.002
300.002
300.002
300.003
300.004
300.004
300.005
300.006
300.007
300.008
300.01
300.011
300.013
300.015
300.017
300.02
300.022
300.025
300.028
300.032
300.035
300.039
300.044
300.049
300.054
300.059
300.065
300.071
300.077
300.084
300.091
300.099
300.107
300.115
300.124
300.133
300.142
300.152
300.162
300.172
300.183
300.194
300.205
300.216
300.228
300.24
300.252
300.265
300.278
300.29
300.303
300.316
300.329
300.343
300.356
300.369
300.383
300.396
300.409
300.423
300.436
300.449
300.462
300.475
300.488
300.501
300.514
300.526
300.538
300.551
300.563
300.574
300.586
300.597
300
300
300
300
300.001
300.001
300.001
300.001
300.002
300.002
300.003
300.003
300.004
300.005
300.006
300.007
300.008
300.009
300.011
300.012
300.014
300.016
300.018
300.021
300.023
300.026
300.03
300.033
300.037
300.041
300.045
300.05
300.055
300.06
300.066
300.071
300.078
300.084
300.091
300.098
300.106
300.114
300.122
300.13
300.139
300.148
300.158
300.167
300.177
300.187
300.197
300.208
300.219
300.23
300.241
300.252
300.263
300.275
300.286
300.298
300.309
300.321
300.333
300.345
300.356
300.368
300.38
300.391
300.403
300.414
300.426
300.437
300.448
300.459
300.47
300.481
300.492
300.502
300.512
300.523
300.533
300
300
300
300
300.001
300.001
300.001
300.001
300.002
300.002
300.003
300.003
300.004
300.004
300.005
300.006
300.007
300.008
300.01
300.011
300.013
300.015
300.017
300.019
300.022
300.024
300.027
300.03
300.034
300.038
300.041
300.046
300.05
300.055
300.06
300.065
300.071
300.077
300.083
300.09
300.096
300.103
300.111
300.118
300.126
300.134
300.143
300.151
300.16
300.169
300.178
300.187
300.197
300.206
300.216
300.226
300.236
300.246
300.256
300.266
300.276
300.287
300.297
300.307
300.317
300.327
300.337
300.348
300.358
300.368
300.377
300.387
300.397
300.406
300.416
300.425
300.434
300.443
300.452
300.461
300.47
300
300
300
300
300.001
300.001
300.001
300.001
300.002
300.002
300.002
300.003
300.003
300.004
300.005
300.006
300.007
300.008
300.009
300.01
300.012
300.014
300.015
300.017
300.02
300.022
300.025
300.028
300.031
300.034
300.038
300.041
300.045
300.05
300.054
300.059
300.064
300.069
300.075
300.081
300.087
300.093
300.099
300.106
300.113
300.12
300.127
300.135
300.143
300.15
300.158
300.166
300.175
300.183
300.192
300.2
300.209
300.217
300.226
300.235
300.244
300.252
300.261
300.27
300.279
300.288
300.296
300.305
300.314
300.322
300.33
300.339
300.347
300.355
300.363
300.371
300.379
300.387
300.395
300.402
300.41
300
300
300
300
300.001
300.001
300.001
300.001
300.001
300.002
300.002
300.003
300.003
300.004
300.004
300.005
300.006
300.007
300.008
300.009
300.011
300.012
300.014
300.016
300.018
300.02
300.022
300.025
300.028
300.031
300.034
300.037
300.041
300.044
300.048
300.053
300.057
300.062
300.067
300.072
300.077
300.082
300.088
300.094
300.1
300.106
300.112
300.119
300.125
300.132
300.139
300.146
300.153
300.16
300.167
300.175
300.182
300.189
300.197
300.204
300.212
300.219
300.227
300.234
300.242
300.249
300.257
300.264
300.271
300.278
300.286
300.293
300.3
300.307
300.313
300.32
300.327
300.333
300.34
300.346
300.352
300
300
300
300
300
300.001
300.001
300.001
300.001
300.002
300.002
300.002
300.003
300.003
300.004
300.005
300.005
300.006
300.007
300.008
300.01
300.011
300.012
300.014
300.016
300.018
300.02
300.022
300.024
300.027
300.03
300.033
300.036
300.039
300.042
300.046
300.05
300.054
300.058
300.063
300.067
300.072
300.077
300.082
300.087
300.092
300.097
300.103
300.108
300.114
300.12
300.126
300.132
300.138
300.144
300.15
300.156
300.163
300.169
300.175
300.181
300.188
300.194
300.2
300.206
300.213
300.219
300.225
300.231
300.237
300.243
300.249
300.255
300.261
300.266
300.272
300.277
300.283
300.288
300.294
300.299
300
300
300
300
300
300.001
300.001
300.001
300.001
300.001
300.002
300.002
300.002
300.003
300.003
300.004
300.005
300.005
300.006
300.007
300.008
300.009
300.011
300.012
300.014
300.015
300.017
300.019
300.021
300.023
300.026
300.028
300.031
300.034
300.037
300.04
300.043
300.046
300.05
300.054
300.057
300.061
300.065
300.07
300.074
300.078
300.083
300.087
300.092
300.097
300.102
300.107
300.112
300.117
300.122
300.127
300.132
300.137
300.142
300.148
300.153
300.158
300.163
300.168
300.173
300.178
300.183
300.189
300.194
300.198
300.203
300.208
300.213
300.218
300.222
300.227
300.232
300.236
300.241
300.245
300.249
300
300
300
300
300
300
300.001
300.001
300.001
300.001
300.001
300.002
300.002
300.002
300.003
300.003
300.004
300.005
300.005
300.006
300.007
300.008
300.009
300.01
300.012
300.013
300.015
300.016
300.018
300.02
300.022
300.024
300.026
300.028
300.031
300.034
300.036
300.039
300.042
300.045
300.048
300.051
300.055
300.058
300.062
300.065
300.069
300.073
300.077
300.081
300.085
300.089
300.093
300.097
300.101
300.105
300.109
300.113
300.118
300.122
300.126
300.13
300.134
300.139
300.143
300.147
300.151
300.155
300.159
300.163
300.167
300.171
300.175
300.179
300.182
300.186
300.19
300.194
300.197
300.201
300.204
300
300
300
300
300
300
300
300.001
300.001
300.001
300.001
300.001
300.002
300.002
300.002
300.003
300.003
300.004
300.004
300.005
300.006
300.007
300.008
300.009
300.01
300.011
300.012
300.013
300.015
300.016
300.018
300.02
300.022
300.024
300.026
300.028
300.03
300.032
300.035
300.037
300.04
300.042
300.045
300.048
300.051
300.054
300.056
300.06
300.063
300.066
300.069
300.072
300.075
300.079
300.082
300.085
300.089
300.092
300.095
300.099
300.102
300.105
300.109
300.112
300.115
300.118
300.122
300.125
300.128
300.131
300.134
300.137
300.141
300.144
300.147
300.15
300.152
300.155
300.158
300.161
300.164
300
300
300
300
300
300
300
300
300.001
300.001
300.001
300.001
300.001
300.002
300.002
300.002
300.003
300.003
300.004
300.004
300.005
300.005
300.006
300.007
300.008
300.009
300.01
300.011
300.012
300.013
300.015
300.016
300.017
300.019
300.021
300.022
300.024
300.026
300.028
300.03
300.032
300.034
300.036
300.038
300.04
300.043
300.045
300.047
300.05
300.052
300.055
300.057
300.06
300.062
300.065
300.067
300.07
300.073
300.075
300.078
300.08
300.083
300.086
300.088
300.091
300.093
300.096
300.098
300.101
300.103
300.106
300.108
300.11
300.113
300.115
300.117
300.12
300.122
300.124
300.126
300.128
300
300
300
300
300
300
300
300
300
300.001
300.001
300.001
300.001
300.001
300.002
300.002
300.002
300.002
300.003
300.003
300.004
300.004
300.005
300.005
300.006
300.007
300.008
300.009
300.009
300.01
300.011
300.012
300.014
300.015
300.016
300.017
300.019
300.02
300.022
300.023
300.025
300.026
300.028
300.03
300.031
300.033
300.035
300.037
300.038
300.04
300.042
300.044
300.046
300.048
300.05
300.052
300.054
300.056
300.058
300.06
300.062
300.064
300.066
300.068
300.069
300.071
300.073
300.075
300.077
300.079
300.081
300.083
300.084
300.086
300.088
300.09
300.091
300.093
300.095
300.096
300.098
300
300
300
300
300
300
300
300
300
300
300.001
300.001
300.001
300.001
300.001
300.001
300.002
300.002
300.002
300.002
300.003
300.003
300.004
300.004
300.005
300.005
300.006
300.006
300.007
300.008
300.009
300.009
300.01
300.011
300.012
300.013
300.014
300.015
300.016
300.017
300.019
300.02
300.021
300.022
300.023
300.025
300.026
300.027
300.029
300.03
300.032
300.033
300.034
300.036
300.037
300.039
300.04
300.042
300.043
300.045
300.046
300.047
300.049
300.05
300.052
300.053
300.054
300.056
300.057
300.059
300.06
300.061
300.063
300.064
300.065
300.066
300.068
300.069
300.07
300.071
300.072
300
300
300
300
300
300
300
300
300
300
300
300
300.001
300.001
300.001
300.001
300.001
300.001
300.002
300.002
300.002
300.002
300.003
300.003
300.003
300.004
300.004
300.005
300.005
300.006
300.006
300.007
300.007
300.008
300.009
300.01
300.01
300.011
300.012
300.013
300.013
300.014
300.015
300.016
300.017
300.018
300.019
300.02
300.021
300.022
300.023
300.024
300.025
300.026
300.027
300.028
300.029
300.03
300.031
300.032
300.033
300.034
300.035
300.036
300.037
300.038
300.039
300.04
300.041
300.042
300.043
300.044
300.045
300.046
300.047
300.048
300.049
300.049
300.05
300.051
300.052
300
300
300
300
300
300
300
300
300
300
300
300
300
300
300
300.001
300.001
300.001
300.001
300.001
300.001
300.002
300.002
300.002
300.002
300.003
300.003
300.003
300.004
300.004
300.004
300.005
300.005
300.006
300.006
300.007
300.007
300.008
300.008
300.009
300.009
300.01
300.011
300.011
300.012
300.012
300.013
300.014
300.014
300.015
300.016
300.017
300.017
300.018
300.019
300.019
300.02
300.021
300.021
300.022
300.023
300.024
300.024
300.025
300.026
300.026
300.027
300.028
300.028
300.029
300.03
300.03
300.031
300.032
300.032
300.033
300.034
300.034
300.035
300.035
300.036
300
300
300
300
300
300
300
300
300
300
300
300
300
300
300
300
300
300
300.001
300.001
300.001
300.001
300.001
300.001
300.001
300.002
300.002
300.002
300.002
300.003
300.003
300.003
300.003
300.004
300.004
300.004
300.005
300.005
300.005
300.006
300.006
300.007
300.007
300.007
300.008
300.008
300.009
300.009
300.01
300.01
300.011
300.011
300.011
300.012
300.012
300.013
300.013
300.014
300.014
300.015
300.015
300.016
300.016
300.017
300.017
300.018
300.018
300.018
300.019
300.019
300.02
300.02
300.021
300.021
300.022
300.022
300.022
300.023
300.023
300.024
300.024
300
300
300
300
300
300
300
300
300
300
300
300
300
300
300
300
300
300
300
300
300
300
300.001
300.001
300.001
300.001
300.001
300.001
300.001
300.002
300.002
300.002
300.002
300.002
300.002
300.003
300.003
300.003
300.003
300.004
300.004
300.004
300.004
300.005
300.005
300.005
300.006
300.006
300.006
300.006
300.007
300.007
300.007
300.008
300.008
300.008
300.009
300.009
300.009
300.009
300.01
300.01
300.01
300.011
300.011
300.011
300.012
300.012
300.012
300.012
300.013
300.013
300.013
300.014
300.014
300.014
300.014
300.015
300.015
300.015
300.015
300
300
300
300
300
300
300
300
300
300
300
300
300
300
300
300
300
300
300
300
300
300
300
300
300
300
300.001
300.001
300.001
300.001
300.001
300.001
300.001
300.001
300.001
300.002
300.002
300.002
300.002
300.002
300.002
300.003
300.003
300.003
300.003
300.003
300.004
300.004
300.004
300.004
300.004
300.004
300.005
300.005
300.005
300.005
300.005
300.006
300.006
300.006
300.006
300.007
300.007
300.007
300.007
300.007
300.007
300.008
300.008
300.008
300.008
300.008
300.009
300.009
300.009
300.009
300.009
300.01
300.01
300.01
300.01
300
300
300
300
300
300
300
300
300
300
300
300
300
300
300
300
300
300
300
300
300
300
300
300
300
300
300
300
300
300.001
300.001
300.001
300.001
300.001
300.001
300.001
300.001
300.001
300.001
300.002
300.002
300.002
300.002
300.002
300.002
300.002
300.002
300.003
300.003
300.003
300.003
300.003
300.003
300.004
300.004
300.004
300.004
300.004
300.004
300.004
300.005
300.005
300.005
300.005
300.005
300.005
300.005
300.006
300.006
300.006
300.006
300.006
300.006
300.006
300.007
300.007
300.007
300.007
300.007
300.007
300.007
302.095
302.211
302.31
302.396
302.472
302.541
302.604
302.66
302.71
302.753
302.789
302.817
302.83
302.852
302.876
302.902
302.928
302.954
302.979
303.004
303.027
303.048
303.066
303.086
303.107
303.127
303.148
303.168
303.188
303.207
303.226
303.244
303.259
303.276
303.293
303.31
303.326
303.343
303.359
303.374
303.389
303.403
303.417
303.431
303.445
303.459
303.472
303.485
303.497
303.508
303.52
303.531
303.543
303.554
303.565
303.576
303.586
303.596
303.606
303.616
303.625
303.634
303.643
303.651
303.659
303.667
303.675
303.683
303.69
303.698
303.705
303.712
303.718
303.725
303.731
303.737
303.743
303.748
303.753
303.758
303.763
303.768
303.772
303.776
303.781
303.785
303.789
303.792
303.796
303.8
303.803
303.806
303.809
303.812
303.814
303.817
303.819
303.821
303.823
303.825
303.827
303.829
303.831
303.832
303.834
303.835
303.836
303.837
303.838
303.839
303.84
303.84
303.841
303.841
303.842
303.842
303.842
303.842
303.842
303.841
303.841
303.841
303.84
303.839
303.838
303.837
303.836
303.834
303.833
303.83
303.828
303.825
303.822
303.819
303.815
303.812
303.808
303.803
303.797
303.791
303.783
303.775
303.766
303.756
303.745
303.732
303.717
303.701
303.684
303.661
303.631
303.601
303.568
303.535
303.492
303.442
303.397
303.325
303.258
303.089
302.816
302.03
302.134
302.226
302.309
302.385
302.453
302.514
302.57
302.62
302.664
302.701
302.732
302.756
302.781
302.807
302.833
302.86
302.886
302.912
302.936
302.96
302.982
303.002
303.023
303.044
303.064
303.085
303.106
303.126
303.145
303.164
303.181
303.198
303.215
303.232
303.249
303.266
303.282
303.299
303.314
303.329
303.344
303.358
303.372
303.386
303.4
303.413
303.426
303.438
303.45
303.461
303.473
303.485
303.496
303.507
303.517
303.528
303.538
303.548
303.558
303.567
303.576
303.585
303.593
303.601
303.609
303.617
303.625
303.633
303.64
303.647
303.654
303.661
303.667
303.673
303.679
303.685
303.69
303.696
303.701
303.706
303.71
303.715
303.719
303.723
303.727
303.731
303.735
303.739
303.742
303.745
303.748
303.751
303.754
303.757
303.759
303.761
303.764
303.766
303.768
303.77
303.772
303.773
303.775
303.776
303.777
303.779
303.78
303.781
303.781
303.782
303.783
303.783
303.783
303.784
303.784
303.784
303.784
303.784
303.784
303.783
303.783
303.782
303.781
303.78
303.779
303.778
303.777
303.775
303.773
303.77
303.768
303.764
303.761
303.758
303.754
303.75
303.745
303.74
303.733
303.726
303.718
303.709
303.699
303.687
303.674
303.66
303.644
303.626
303.603
303.574
303.544
303.511
303.476
303.433
303.383
303.332
303.259
303.18
303.01
302.741
301.973
302.063
302.148
302.226
302.299
302.365
302.425
302.48
302.53
302.574
302.613
302.647
302.677
302.705
302.733
302.761
302.788
302.814
302.84
302.865
302.889
302.912
302.934
302.955
302.977
302.998
303.019
303.039
303.059
303.079
303.098
303.116
303.134
303.151
303.168
303.185
303.202
303.219
303.235
303.25
303.266
303.28
303.295
303.309
303.323
303.337
303.35
303.363
303.376
303.388
303.4
303.411
303.423
303.434
303.445
303.456
303.466
303.476
303.486
303.496
303.506
303.515
303.524
303.532
303.54
303.548
303.556
303.564
303.572
303.579
303.586
303.593
303.6
303.606
303.612
303.618
303.624
303.629
303.635
303.64
303.645
303.649
303.654
303.658
303.662
303.666
303.67
303.674
303.677
303.681
303.684
303.687
303.69
303.693
303.696
303.698
303.7
303.702
303.705
303.707
303.708
303.71
303.712
303.713
303.715
303.716
303.717
303.718
303.719
303.72
303.721
303.721
303.722
303.722
303.722
303.723
303.723
303.723
303.723
303.722
303.722
303.721
303.721
303.72
303.719
303.718
303.717
303.715
303.714
303.711
303.709
303.707
303.703
303.7
303.697
303.693
303.689
303.684
303.679
303.672
303.665
303.657
303.648
303.638
303.627
303.614
303.599
303.583
303.564
303.541
303.514
303.483
303.45
303.414
303.37
303.32
303.265
303.19
303.1
302.93
302.667
301.916
301.997
302.074
302.146
302.215
302.278
302.337
302.391
302.44