/*--------------------------------*- C++ -*----------------------------------*\
| =========                 |                                                 |
| \\      /  F ield         | OpenFOAM: The Open Source CFD Toolbox           |
|  \\    /   O peration     | Version:  4.1                                   |
|   \\  /    A nd           | Web:      www.OpenFOAM.org                      |
|    \\/     M anipulation  |                                                 |
\*---------------------------------------------------------------------------*/
FoamFile
{
    version     2.0;
    format      ascii;
    class       volVectorField;
    location    "0.8";
    object      U;
}
// * * * * * * * * * * * * * * * * * * * * * * * * * * * * * * * * * * * * * //

dimensions      [0 1 -1 0 0 0 0];

internalField   nonuniform List<vector> 
12013
(
(0.100003 -6.88624e-07 0)
(0.100012 -5.26764e-07 0)
(0.100014 7.07082e-07 0)
(0.0999982 2.98545e-06 0)
(0.0999554 5.91234e-06 0)
(0.0998832 8.89083e-06 0)
(0.0997855 1.13598e-05 0)
(0.0996703 1.29915e-05 0)
(0.0995466 1.37487e-05 0)
(0.0994225 1.38122e-05 0)
(0.0993028 1.34557e-05 0)
(0.0991899 1.29337e-05 0)
(0.099084 1.24237e-05 0)
(0.0989843 1.20154e-05 0)
(0.0988896 1.17303e-05 0)
(0.0987987 1.15502e-05 0)
(0.0987109 1.14406e-05 0)
(0.0986258 1.13675e-05 0)
(0.098543 1.13024e-05 0)
(0.0984627 1.12268e-05 0)
(0.0983849 1.11293e-05 0)
(0.0983097 1.10035e-05 0)
(0.0982373 1.08466e-05 0)
(0.0981679 1.06573e-05 0)
(0.0981016 1.04354e-05 0)
(0.0980385 1.01811e-05 0)
(0.0979788 9.89414e-06 0)
(0.0979227 9.57449e-06 0)
(0.0978701 9.22211e-06 0)
(0.0978212 8.83722e-06 0)
(0.0977761 8.42037e-06 0)
(0.0977349 7.9726e-06 0)
(0.0976977 7.49564e-06 0)
(0.0976644 6.9922e-06 0)
(0.0976351 6.46613e-06 0)
(0.0976097 5.92186e-06 0)
(0.0975883 5.36559e-06 0)
(0.0975708 4.80477e-06 0)
(0.097557 4.24789e-06 0)
(0.0975467 3.70608e-06 0)
(0.0975399 3.19067e-06 0)
(0.0975361 2.71615e-06 0)
(0.0975351 2.29774e-06 0)
(0.0975364 1.95343e-06 0)
(0.0975398 1.7028e-06 0)
(0.0975446 1.56898e-06 0)
(0.0975502 1.57609e-06 0)
(0.0975561 1.75292e-06 0)
(0.0975614 2.13108e-06 0)
(0.0975654 2.74653e-06 0)
(0.097567 3.63997e-06 0)
(0.0975653 4.85869e-06 0)
(0.0975591 6.4558e-06 0)
(0.0975471 8.49407e-06 0)
(0.0975278 1.10462e-05 0)
(0.0974996 1.4198e-05 0)
(0.0974606 1.80512e-05 0)
(0.0974088 2.27275e-05 0)
(0.0973416 2.83734e-05 0)
(0.0972564 3.51671e-05 0)
(0.0971499 4.33281e-05 0)
(0.0970184 5.31284e-05 0)
(0.0968574 6.49081e-05 0)
(0.0966617 7.90993e-05 0)
(0.0964249 9.62558e-05 0)
(0.0961394 0.000117098 0)
(0.0957957 0.000142574 0)
(0.095382 0.000173958 0)
(0.0948834 0.000212984 0)
(0.0942806 0.000262062 0)
(0.0935486 0.000324611 0)
(0.0926539 0.000405584 0)
(0.091551 0.000512325 0)
(0.0901767 0.000655992 0)
(0.0884412 0.000853952 0)
(0.0862145 0.0011339 0)
(0.0833034 0.00154109 0)
(0.0794019 0.0021534 0)
(0.0740311 0.0031284 0)
(0.0666205 0.00490736 0)
(0.0582764 0.00947933 0)
(0.100003 -2.12419e-06 0)
(0.100012 -1.6445e-06 0)
(0.100015 2.12836e-06 0)
(0.0999993 9.10974e-06 0)
(0.0999571 1.80874e-05 0)
(0.0998857 2.72301e-05 0)
(0.0997886 3.48161e-05 0)
(0.0996739 3.98366e-05 0)
(0.0995507 4.21737e-05 0)
(0.0994268 4.23814e-05 0)
(0.0993073 4.12967e-05 0)
(0.0991944 3.97016e-05 0)
(0.0990885 3.81403e-05 0)
(0.0989887 3.68888e-05 0)
(0.0988939 3.60144e-05 0)
(0.0988029 3.54609e-05 0)
(0.0987151 3.51243e-05 0)
(0.0986299 3.48986e-05 0)
(0.0985471 3.46992e-05 0)
(0.0984667 3.44677e-05 0)
(0.0983888 3.41695e-05 0)
(0.0983136 3.37854e-05 0)
(0.0982411 3.33061e-05 0)
(0.0981715 3.27285e-05 0)
(0.0981051 3.20517e-05 0)
(0.0980418 3.12757e-05 0)
(0.0979819 3.04001e-05 0)
(0.0979255 2.94251e-05 0)
(0.0978726 2.83503e-05 0)
(0.0978234 2.71768e-05 0)
(0.0977779 2.59058e-05 0)
(0.0977363 2.45408e-05 0)
(0.0976985 2.30874e-05 0)
(0.0976646 2.15538e-05 0)
(0.0976347 1.99513e-05 0)
(0.0976086 1.82942e-05 0)
(0.0975865 1.66009e-05 0)
(0.0975681 1.48943e-05 0)
(0.0975534 1.32025e-05 0)
(0.0975421 1.15565e-05 0)
(0.0975342 9.99365e-06 0)
(0.0975292 8.55596e-06 0)
(0.097527 7.29199e-06 0)
(0.097527 6.25598e-06 0)
(0.097529 5.50911e-06 0)
(0.0975323 5.12011e-06 0)
(0.0975364 5.16536e-06 0)
(0.0975406 5.73118e-06 0)
(0.0975443 6.91451e-06 0)
(0.0975465 8.82563e-06 0)
(0.0975463 1.15898e-05 0)
(0.0975427 1.53498e-05 0)
(0.0975346 2.02693e-05 0)
(0.0975207 2.65388e-05 0)
(0.0974995 3.43805e-05 0)
(0.0974695 4.40559e-05 0)
(0.0974287 5.58738e-05 0)
(0.0973751 7.02041e-05 0)
(0.0973064 8.74916e-05 0)
(0.0972199 0.000108277 0)
(0.0971125 0.000133224 0)
(0.0969804 0.000163152 0)
(0.0968196 0.000199087 0)
(0.0966248 0.000242325 0)
(0.0963903 0.000294526 0)
(0.0961086 0.000357834 0)
(0.0957709 0.000435069 0)
(0.0953665 0.000529985 0)
(0.0948816 0.000647666 0)
(0.0942993 0.000795114 0)
(0.0935975 0.000982153 0)
(0.0927478 0.00122283 0)
(0.0917131 0.0015376 0)
(0.0904438 0.00195685 0)
(0.0888743 0.0025264 0)
(0.0869173 0.00331615 0)
(0.0844594 0.00443262 0)
(0.0813513 0.00603616 0)
(0.0774265 0.00836356 0)
(0.0727387 0.0116932 0)
(0.0686408 0.0158937 0)
(0.100003 -3.67977e-06 0)
(0.100012 -2.91904e-06 0)
(0.100016 3.51187e-06 0)
(0.100001 1.54653e-05 0)
(0.0999602 3.08724e-05 0)
(0.0998904 4.65943e-05 0)
(0.099795 5.96714e-05 0)
(0.0996817 6.83604e-05 0)
(0.0995596 7.24445e-05 0)
(0.0994364 7.28638e-05 0)
(0.0993172 7.10485e-05 0)
(0.0992045 6.83399e-05 0)
(0.0990985 6.56746e-05 0)
(0.0989986 6.35305e-05 0)
(0.0989036 6.2027e-05 0)
(0.0988125 6.1072e-05 0)
(0.0987246 6.04885e-05 0)
(0.0986393 6.00966e-05 0)
(0.0985564 5.97524e-05 0)
(0.098476 5.93561e-05 0)
(0.0983981 5.88474e-05 0)
(0.0983227 5.81937e-05 0)
(0.0982501 5.73799e-05 0)
(0.0981804 5.63995e-05 0)
(0.0981138 5.52513e-05 0)
(0.0980502 5.39349e-05 0)
(0.09799 5.24504e-05 0)
(0.0979332 5.07977e-05 0)
(0.0978798 4.89767e-05 0)
(0.09783 4.69888e-05 0)
(0.0977839 4.48367e-05 0)
(0.0977415 4.25267e-05 0)
(0.0977029 4.00683e-05 0)
(0.097668 3.74762e-05 0)
(0.097637 3.47687e-05 0)
(0.0976097 3.19716e-05 0)
(0.0975861 2.9117e-05 0)
(0.0975662 2.6244e-05 0)
(0.0975498 2.34e-05 0)
(0.0975368 2.06393e-05 0)
(0.0975268 1.80255e-05 0)
(0.0975197 1.5631e-05 0)
(0.0975152 1.35392e-05 0)
(0.0975128 1.18429e-05 0)
(0.0975121 1.06469e-05 0)
(0.0975127 1.00683e-05 0)
(0.0975138 1.02389e-05 0)
(0.0975149 1.13058e-05 0)
(0.0975153 1.34348e-05 0)
(0.0975141 1.68141e-05 0)
(0.0975105 2.1657e-05 0)
(0.0975033 2.82063e-05 0)
(0.0974916 3.67414e-05 0)
(0.0974739 4.75855e-05 0)
(0.097449 6.1115e-05 0)
(0.0974152 7.77722e-05 0)
(0.0973709 9.80784e-05 0)
(0.0973139 0.000122657 0)
(0.0972421 0.000152254 0)
(0.0971528 0.000187776 0)
(0.0970432 0.000230328 0)
(0.0969098 0.000281273 0)
(0.0967487 0.000342307 0)
(0.0965552 0.000415561 0)
(0.0963239 0.000503742 0)
(0.0960484 0.000610327 0)
(0.0957209 0.000739836 0)
(0.095332 0.000898224 0)
(0.0948705 0.00109344 0)
(0.0943226 0.00133624 0)
(0.0936714 0.00164139 0)
(0.0928964 0.00202944 0)
(0.0919725 0.0025293 0)
(0.09087 0.003182 0)
(0.0895551 0.00404583 0)
(0.0879933 0.00520269 0)
(0.0861579 0.00676343 0)
(0.0840473 0.00886578 0)
(0.0817291 0.0116496 0)
(0.0794755 0.0151324 0)
(0.0780183 0.0187017 0)
(0.100003 -5.36343e-06 0)
(0.100012 -4.39143e-06 0)
(0.100017 4.77491e-06 0)
(0.100004 2.19178e-05 0)
(0.0999649 4.40945e-05 0)
(0.0998977 6.68002e-05 0)
(0.099805 8.57665e-05 0)
(0.0996941 9.84562e-05 0)
(0.0995739 0.000104523 0)
(0.099452 0.000105289 0)
(0.0993335 0.000102797 0)
(0.099221 9.89727e-05 0)
(0.099115 9.51715e-05 0)
(0.0990149 9.20916e-05 0)
(0.0989198 8.99168e-05 0)
(0.0988285 8.85242e-05 0)
(0.0987405 8.76659e-05 0)
(0.0986551 8.70873e-05 0)
(0.0985722 8.65824e-05 0)
(0.0984918 8.60091e-05 0)
(0.0984139 8.52802e-05 0)
(0.0983385 8.43485e-05 0)
(0.0982659 8.31918e-05 0)
(0.0981961 8.18005e-05 0)
(0.0981292 8.01724e-05 0)
(0.0980655 7.83075e-05 0)
(0.0980049 7.62055e-05 0)
(0.0979477 7.38666e-05 0)
(0.0978938 7.12912e-05 0)
(0.0978433 6.84812e-05 0)
(0.0977964 6.54416e-05 0)
(0.097753 6.21812e-05 0)
(0.0977133 5.87148e-05 0)
(0.0976772 5.50631e-05 0)
(0.0976447 5.12538e-05 0)
(0.0976158 4.73242e-05 0)
(0.0975904 4.33208e-05 0)
(0.0975684 3.93004e-05 0)
(0.0975498 3.53307e-05 0)
(0.0975343 3.14912e-05 0)
(0.0975216 2.78728e-05 0)
(0.0975116 2.45812e-05 0)
(0.0975039 2.17351e-05 0)
(0.0974981 1.94686e-05 0)
(0.0974938 1.79319e-05 0)
(0.0974905 1.72937e-05 0)
(0.0974875 1.77424e-05 0)
(0.0974844 1.94896e-05 0)
(0.0974803 2.27728e-05 0)
(0.0974744 2.78603e-05 0)
(0.0974659 3.50565e-05 0)
(0.0974538 4.47076e-05 0)
(0.0974369 5.72106e-05 0)
(0.0974141 7.3024e-05 0)
(0.0973841 9.26803e-05 0)
(0.0973453 0.000116802 0)
(0.0972961 0.000146124 0)
(0.0972346 0.000181518 0)
(0.0971586 0.000224027 0)
(0.0970659 0.000274906 0)
(0.0969537 0.000335683 0)
(0.096819 0.000408228 0)
(0.0966582 0.000494853 0)
(0.0964674 0.000598434 0)
(0.0962418 0.000722594 0)
(0.0959762 0.000871929 0)
(0.0956642 0.00105233 0)
(0.0952987 0.00127144 0)
(0.0948713 0.00153922 0)
(0.0943726 0.00186887 0)
(0.0937918 0.00227793 0)
(0.0931176 0.00278991 0)
(0.0923383 0.00343636 0)
(0.091444 0.0042594 0)
(0.0904301 0.00531433 0)
(0.0893037 0.00667077 0)
(0.088095 0.00840858 0)
(0.0868751 0.0105999 0)
(0.0857802 0.0132614 0)
(0.0850393 0.0162355 0)
(0.0849399 0.0189272 0)
(0.100003 -7.19521e-06 0)
(0.100013 -6.11719e-06 0)
(0.100018 5.80131e-06 0)
(0.100007 2.82791e-05 0)
(0.0999712 5.75059e-05 0)
(0.0999077 8.75756e-05 0)
(0.0998188 0.000112851 0)
(0.0997115 0.000129936 0)
(0.0995941 0.000138305 0)
(0.0994741 0.00013964 0)
(0.0993567 0.000136597 0)
(0.0992446 0.000131706 0)
(0.0991387 0.000126763 0)
(0.0990384 0.000122713 0)
(0.0989431 0.000119821 0)
(0.0988517 0.000117944 0)
(0.0987636 0.00011677 0)
(0.0986782 0.000115971 0)
(0.0985954 0.00011528 0)
(0.0985151 0.000114511 0)
(0.0984373 0.000113548 0)
(0.0983621 0.000112329 0)
(0.0982895 0.000110823 0)
(0.0982197 0.000109016 0)
(0.0981529 0.000106906 0)
(0.098089 0.000104492 0)
(0.0980281 0.000101774 0)
(0.0979705 9.87529e-05 0)
(0.0979161 9.54293e-05 0)
(0.097865 9.18065e-05 0)
(0.0978172 8.78922e-05 0)
(0.0977729 8.3699e-05 0)
(0.0977319 7.92467e-05 0)
(0.0976944 7.45631e-05 0)
(0.0976603 6.96869e-05 0)
(0.0976295 6.46674e-05 0)
(0.097602 5.95662e-05 0)
(0.0975776 5.44597e-05 0)
(0.0975563 4.94371e-05 0)
(0.0975379 4.46038e-05 0)
(0.097522 4.00807e-05 0)
(0.0975085 3.60068e-05 0)
(0.097497 3.25388e-05 0)
(0.0974871 2.98536e-05 0)
(0.0974783 2.81491e-05 0)
(0.0974703 2.76465e-05 0)
(0.0974624 2.85936e-05 0)
(0.097454 3.12673e-05 0)
(0.0974445 3.59791e-05 0)
(0.0974329 4.30789e-05 0)
(0.0974186 5.29635e-05 0)
(0.0974005 6.60825e-05 0)
(0.0973776 8.29507e-05 0)
(0.0973487 0.00010416 0)
(0.0973127 0.000130397 0)
(0.097268 0.000162458 0)
(0.0972132 0.000201282 0)
(0.0971466 0.000247974 0)
(0.0970663 0.000303852 0)
(0.0969701 0.00037049 0)
(0.0968558 0.00044979 0)
(0.0967206 0.000544058 0)
(0.0965617 0.000656119 0)
(0.0963759 0.000789449 0)
(0.0961594 0.000948363 0)
(0.0959082 0.00113825 0)
(0.095618 0.0013659 0)
(0.095284 0.00163991 0)
(0.0949012 0.0019712 0)
(0.0944647 0.00237379 0)
(0.0939702 0.00286559 0)
(0.0934148 0.0034695 0)
(0.0927987 0.00421451 0)
(0.0921276 0.00513656 0)
(0.0914164 0.00627843 0)
(0.0906956 0.00768688 0)
(0.0900183 0.00940385 0)
(0.089469 0.0114455 0)
(0.0891664 0.0137613 0)
(0.0892484 0.0161633 0)
(0.0897976 0.0182357 0)
(0.100003 -9.19596e-06 0)
(0.100013 -8.16097e-06 0)
(0.100019 6.45006e-06 0)
(0.100011 3.43187e-05 0)
(0.0999791 7.07977e-05 0)
(0.0999204 0.000108574 0)
(0.0998366 0.000140596 0)
(0.099734 0.000162539 0)
(0.0996203 0.000173628 0)
(0.0995029 0.000175859 0)
(0.0993871 0.00017248 0)
(0.0992757 0.000166632 0)
(0.0991699 0.000160578 0)
(0.0990696 0.000155536 0)
(0.0989741 0.000151875 0)
(0.0988826 0.000149455 0)
(0.0987944 0.000147909 0)
(0.0987092 0.000146842 0)
(0.0986267 0.000145927 0)
(0.0985466 0.000144933 0)
(0.0984691 0.000143717 0)
(0.0983942 0.000142197 0)
(0.0983219 0.000140334 0)
(0.0982523 0.000138111 0)
(0.0981856 0.000135522 0)
(0.0981217 0.000132565 0)
(0.0980608 0.000129243 0)
(0.0980029 0.000125555 0)
(0.0979481 0.000121503 0)
(0.0978964 0.000117095 0)
(0.0978479 0.000112339 0)
(0.0978026 0.000107253 0)
(0.0977604 0.000101863 0)
(0.0977214 9.62059e-05 0)
(0.0976856 9.03305e-05 0)
(0.0976528 8.43001e-05 0)
(0.097623 7.81933e-05 0)
(0.0975961 7.21062e-05 0)
(0.0975719 6.61511e-05 0)
(0.0975502 6.04605e-05 0)
(0.0975308 5.51868e-05 0)
(0.0975133 5.05029e-05 0)
(0.0974975 4.66054e-05 0)
(0.097483 4.37151e-05 0)
(0.0974694 4.20784e-05 0)
(0.0974561 4.19704e-05 0)
(0.0974427 4.36991e-05 0)
(0.0974285 4.76074e-05 0)
(0.0974128 5.40801e-05 0)
(0.0973949 6.35491e-05 0)
(0.0973741 7.65014e-05 0)
(0.0973494 9.34886e-05 0)
(0.0973198 0.000115138 0)
(0.0972844 0.000142171 0)
(0.0972419 0.000175414 0)
(0.0971911 0.000215828 0)
(0.0971307 0.000264535 0)
(0.0970591 0.000322847 0)
(0.0969747 0.000392315 0)
(0.0968758 0.000474781 0)
(0.0967604 0.000572443 0)
(0.0966264 0.00068794 0)
(0.0964717 0.00082446 0)
(0.0962938 0.000985871 0)
(0.0960903 0.00117689 0)
(0.0958586 0.0014033 0)
(0.0955963 0.00167219 0)
(0.0953012 0.0019923 0)
(0.0949714 0.00237443 0)
(0.0946066 0.00283181 0)
(0.0942076 0.00338064 0)
(0.0937785 0.00404047 0)
(0.0933277 0.00483436 0)
(0.0928701 0.00578843 0)
(0.0924304 0.00693007 0)
(0.0920459 0.0082836 0)
(0.0917703 0.00986139 0)
(0.0916737 0.0116479 0)
(0.0918362 0.0135745 0)
(0.0923258 0.0154884 0)
(0.0931466 0.0171325 0)
(0.100003 -1.13873e-05 0)
(0.100013 -1.05944e-05 0)
(0.100021 6.56413e-06 0)
(0.100016 3.97731e-05 0)
(0.0999884 8.36106e-05 0)
(0.0999354 0.000129385 0)
(0.0998579 0.000168601 0)
(0.0997611 0.000195934 0)
(0.0996522 0.000210268 0)
(0.0995381 0.000213835 0)
(0.0994243 0.000210436 0)
(0.099314 0.000203817 0)
(0.0992086 0.000196726 0)
(0.0991083 0.000190686 0)
(0.0990128 0.000186207 0)
(0.0989213 0.000183173 0)
(0.0988333 0.000181181 0)
(0.0987484 0.000179779 0)
(0.0986662 0.000178587 0)
(0.0985866 0.000177329 0)
(0.0985097 0.000175831 0)
(0.0984352 0.000173994 0)
(0.0983634 0.000171766 0)
(0.0982943 0.000169125 0)
(0.0982279 0.000166063 0)
(0.0981642 0.000162578 0)
(0.0981034 0.00015867 0)
(0.0980455 0.000154343 0)
(0.0979904 0.0001496 0)
(0.0979383 0.000144449 0)
(0.0978892 0.000138904 0)
(0.097843 0.000132989 0)
(0.0977997 0.000126737 0)
(0.0977593 0.000120194 0)
(0.0977218 0.000113422 0)
(0.097687 0.000106498 0)
(0.0976549 9.95188e-05 0)
(0.0976253 9.2601e-05 0)
(0.0975981 8.58824e-05 0)
(0.097573 7.95225e-05 0)
(0.0975498 7.3706e-05 0)
(0.0975282 6.86415e-05 0)
(0.0975079 6.45653e-05 0)
(0.0974885 6.17423e-05 0)
(0.0974697 6.0468e-05 0)
(0.0974508 6.10718e-05 0)
(0.0974315 6.39204e-05 0)
(0.0974111 6.94221e-05 0)
(0.0973889 7.80332e-05 0)
(0.0973645 9.02641e-05 0)
(0.0973368 0.000106688 0)
(0.0973053 0.000127951 0)
(0.097269 0.000154787 0)
(0.0972269 0.000188029 0)
(0.097178 0.000228633 0)
(0.0971213 0.000277698 0)
(0.0970556 0.000336497 0)
(0.0969797 0.00040651 0)
(0.0968922 0.000489466 0)
(0.0967918 0.000587395 0)
(0.0966771 0.000702691 0)
(0.0965465 0.000838191 0)
(0.0963987 0.000997261 0)
(0.0962322 0.00118391 0)
(0.0960456 0.00140294 0)
(0.0958381 0.00166005 0)
(0.0956089 0.00196209 0)
(0.0953581 0.00231718 0)
(0.095087 0.00273497 0)
(0.0947981 0.00322676 0)
(0.0944966 0.00380561 0)
(0.0941907 0.00448623 0)
(0.0938931 0.0052845 0)
(0.0936224 0.00621638 0)
(0.0934047 0.00729557 0)
(0.0932746 0.0085296 0)
(0.0932755 0.0099132 0)
(0.0934562 0.0114187 0)
(0.0938635 0.0129837 0)
(0.0945247 0.0145011 0)
(0.0954207 0.0158202 0)
(0.100003 -1.37902e-05 0)
(0.100014 -1.34894e-05 0)
(0.100023 5.98078e-06 0)
(0.100021 4.43644e-05 0)
(0.0999987 9.55581e-05 0)
(0.0999523 0.000149555 0)
(0.099882 0.000196412 0)
(0.099792 0.000229728 0)
(0.0996887 0.000247938 0)
(0.0995789 0.000253402 0)
(0.0994677 0.000250408 0)
(0.0993589 0.000243286 0)
(0.0992542 0.000235285 0)
(0.0991542 0.000228267 0)
(0.0990588 0.000222922 0)
(0.0989675 0.000219193 0)
(0.0988798 0.000216666 0)
(0.0987953 0.000214848 0)
(0.0987138 0.000213309 0)
(0.0986349 0.000211734 0)
(0.0985587 0.000209918 0)
(0.098485 0.000207739 0)
(0.0984139 0.000205136 0)
(0.0983454 0.000202077 0)
(0.0982796 0.000198552 0)
(0.0982164 0.000194557 0)
(0.0981559 0.000190094 0)
(0.0980981 0.000185166 0)
(0.098043 0.00017978 0)
(0.0979907 0.000173947 0)
(0.0979411 0.000167687 0)
(0.0978941 0.00016103 0)
(0.0978498 0.000154018 0)
(0.0978082 0.000146708 0)
(0.097769 0.000139175 0)
(0.0977323 0.000131511 0)
(0.0976979 0.000123834 0)
(0.0976657 0.00011628 0)
(0.0976354 0.000109014 0)
(0.0976068 0.000102223 0)
(0.0975798 9.61233e-05 0)
(0.097554 9.09606e-05 0)
(0.0975291 8.70103e-05 0)
(0.0975048 8.45807e-05 0)
(0.0974805 8.40155e-05 0)
(0.097456 8.56964e-05 0)
(0.0974306 9.00467e-05 0)
(0.0974039 9.75371e-05 0)
(0.0973754 0.000108691 0)
(0.0973442 0.00012409 0)
(0.0973099 0.000144386 0)
(0.0972716 0.000170311 0)
(0.0972287 0.000202686 0)
(0.0971803 0.000242442 0)
(0.0971256 0.000290636 0)
(0.0970637 0.000348475 0)
(0.0969936 0.00041734 0)
(0.0969145 0.000498823 0)
(0.0968253 0.000594759 0)
(0.0967252 0.000707275 0)
(0.0966132 0.00083884 0)
(0.0964885 0.000992327 0)
(0.0963505 0.00117108 0)
(0.0961985 0.001379 0)
(0.0960325 0.00162062 0)
(0.0958528 0.0019012 0)
(0.0956604 0.00222679 0)
(0.0954571 0.00260433 0)
(0.0952462 0.00304164 0)
(0.0950327 0.00354742 0)
(0.0948237 0.00413099 0)
(0.0946294 0.00480196 0)
(0.0944636 0.00556949 0)
(0.0943444 0.00644103 0)
(0.0942946 0.00742038 0)
(0.0943416 0.00850484 0)
(0.0945159 0.00968124 0)
(0.0948482 0.0109211 0)
(0.0953625 0.0121762 0)
(0.0960664 0.0133766 0)
(0.0969385 0.014436 0)
(0.100003 -1.64231e-05 0)
(0.100014 -1.69115e-05 0)
(0.100025 4.54819e-06 0)
(0.100026 4.7827e-05 0)
(0.10001 0.00010626 0)
(0.0999702 0.000168624 0)
(0.0999078 0.00022355 0)
(0.0998254 0.000263488 0)
(0.0997286 0.000286294 0)
(0.0996236 0.00029433 0)
(0.0995159 0.000292276 0)
(0.0994091 0.000285007 0)
(0.0993055 0.000276283 0)
(0.0992061 0.00026834 0)
(0.0991111 0.000262093 0)
(0.0990203 0.000257585 0)
(0.0989331 0.000254423 0)
(0.0988493 0.000252092 0)
(0.0987686 0.000250124 0)
(0.0986906 0.000248167 0)
(0.0986154 0.000245986 0)
(0.0985427 0.000243438 0)
(0.0984725 0.000240446 0)
(0.0984049 0.00023697 0)
(0.0983399 0.000232996 0)
(0.0982773 0.000228517 0)
(0.0982174 0.000223536 0)
(0.0981599 0.000218057 0)
(0.098105 0.000212091 0)
(0.0980525 0.000205655 0)
(0.0980026 0.000198774 0)
(0.0979551 0.000191487 0)
(0.0979099 0.000183844 0)
(0.0978671 0.000175915 0)
(0.0978264 0.00016779 0)
(0.0977878 0.000159579 0)
(0.0977512 0.000151418 0)
(0.0977163 0.000143466 0)
(0.0976831 0.000135912 0)
(0.0976511 0.000128973 0)
(0.0976203 0.000122898 0)
(0.0975903 0.000117967 0)
(0.0975608 0.000114493 0)
(0.0975315 0.000112828 0)
(0.097502 0.000113359 0)
(0.0974718 0.000116517 0)
(0.0974405 0.000122779 0)
(0.0974077 0.00013267 0)
(0.0973728 0.000146774 0)
(0.0973353 0.000165735 0)
(0.0972946 0.000190272 0)
(0.0972501 0.000221182 0)
(0.0972012 0.000259358 0)
(0.0971471 0.000305802 0)
(0.0970874 0.00036164 0)
(0.0970213 0.000428144 0)
(0.0969481 0.000506753 0)
(0.0968672 0.000599104 0)
(0.0967781 0.000707055 0)
(0.0966803 0.000832725 0)
(0.0965733 0.00097853 0)
(0.096457 0.00114722 0)
(0.0963314 0.00134192 0)
(0.0961968 0.00156618 0)
(0.0960541 0.001824 0)
(0.0959046 0.00211985 0)
(0.0957505 0.00245867 0)
(0.095595 0.00284584 0)
(0.0954425 0.0032871 0)
(0.0952989 0.00378832 0)
(0.0951723 0.00435526 0)
(0.0950727 0.00499303 0)
(0.0950129 0.00570543 0)
(0.095008 0.00649391 0)
(0.0950758 0.00735626 0)
(0.0952358 0.00828485 0)
(0.0955076 0.00926475 0)
(0.0959083 0.0102717 0)
(0.0964488 0.0112713 0)
(0.0971284 0.0122196 0)
(0.0979296 0.0130675 0)
(0.100003 -1.92996e-05 0)
(0.100015 -2.09117e-05 0)
(0.100027 2.14376e-06 0)
(0.100031 4.9937e-05 0)
(0.10002 0.000115383 0)
(0.0999882 0.000186174 0)
(0.0999339 0.000249557 0)
(0.0998596 0.000296772 0)
(0.09977 0.000324961 0)
(0.0996706 0.000336335 0)
(0.0995668 0.000335854 0)
(0.0994627 0.000328881 0)
(0.0993608 0.000319684 0)
(0.0992625 0.00031091 0)
(0.0991683 0.000303746 0)
(0.0990782 0.000298383 0)
(0.0989919 0.000294483 0)
(0.098909 0.000291535 0)
(0.0988293 0.000289047 0)
(0.0987525 0.000286636 0)
(0.0986784 0.000284039 0)
(0.0986068 0.000281089 0)
(0.0985378 0.000277694 0)
(0.0984713 0.000273805 0)
(0.0984072 0.000269399 0)
(0.0983455 0.00026447 0)
(0.0982862 0.000259019 0)
(0.0982292 0.000253053 0)
(0.0981746 0.000246588 0)
(0.0981222 0.000239646 0)
(0.098072 0.00023226 0)
(0.0980241 0.000224477 0)
(0.0979781 0.00021636 0)
(0.0979342 0.000207993 0)
(0.0978921 0.000199479 0)
(0.0978517 0.000190947 0)
(0.0978129 0.000182553 0)
(0.0977755 0.000174479 0)
(0.0977393 0.000166939 0)
(0.097704 0.000160179 0)
(0.0976695 0.000154477 0)
(0.0976354 0.000150146 0)
(0.0976014 0.000147536 0)
(0.0975673 0.000147036 0)
(0.0975326 0.000149076 0)
(0.097497 0.00015413 0)
(0.0974601 0.000162719 0)
(0.0974215 0.000175417 0)
(0.0973807 0.000192856 0)
(0.0973373 0.000215729 0)
(0.0972908 0.000244803 0)
(0.0972407 0.000280925 0)
(0.0971866 0.000325031 0)
(0.0971279 0.000378162 0)
(0.0970643 0.000441474 0)
(0.0969952 0.000516256 0)
(0.0969204 0.000603948 0)
(0.0968395 0.000706156 0)
(0.0967524 0.000824679 0)
(0.0966588 0.000961521 0)
(0.096559 0.00111892 0)
(0.0964533 0.00129936 0)
(0.0963424 0.00150557 0)
(0.0962271 0.00174058 0)
(0.0961092 0.00200765 0)
(0.0959907 0.00231027 0)
(0.0958745 0.0026521 0)
(0.0957643 0.00303689 0)
(0.0956652 0.00346829 0)
(0.0955831 0.00394965 0)
(0.0955255 0.0044837 0)
(0.0955014 0.00507214 0)
(0.0955213 0.00571508 0)
(0.0955967 0.00641036 0)
(0.0957404 0.0071528 0)
(0.0959647 0.00793337 0)
(0.0962814 0.00873841 0)
(0.0966991 0.0095492 0)
(0.0972215 0.0103421 0)
(0.0978451 0.0110899 0)
(0.0985569 0.0117647 0)
(0.100003 -2.24262e-05 0)
(0.100015 -2.5518e-05 0)
(0.100029 -1.3092e-06 0)
(0.100036 5.0543e-05 0)
(0.10003 0.000122683 0)
(0.100005 0.000201871 0)
(0.099959 0.000274039 0)
(0.099893 0.000329169 0)
(0.0998108 0.000363552 0)
(0.0997176 0.000379089 0)
(0.0996185 0.000380886 0)
(0.0995176 0.000374728 0)
(0.099418 0.000365376 0)
(0.0993213 0.000355916 0)
(0.0992284 0.000347854 0)
(0.0991394 0.000341578 0)
(0.0990543 0.000336848 0)
(0.0989726 0.000333181 0)
(0.0988941 0.000330081 0)
(0.0988186 0.000327142 0)
(0.0987458 0.000324076 0)
(0.0986756 0.000320695 0)
(0.0986079 0.000316887 0)
(0.0985426 0.000312593 0)
(0.0984795 0.000307783 0)
(0.0984188 0.000302447 0)
(0.0983602 0.000296588 0)
(0.0983038 0.000290216 0)
(0.0982495 0.00028335 0)
(0.0981973 0.00027602 0)
(0.098147 0.000268268 0)
(0.0980986 0.000260151 0)
(0.0980519 0.000251746 0)
(0.0980069 0.000243149 0)
(0.0979634 0.000234481 0)
(0.0979213 0.00022589 0)
(0.0978804 0.000217549 0)
(0.0978404 0.000209666 0)
(0.0978014 0.000202477 0)
(0.0977628 0.000196254 0)
(0.0977247 0.000191304 0)
(0.0976866 0.00018797 0)
(0.0976483 0.000186635 0)
(0.0976096 0.00018772 0)
(0.09757 0.00019169 0)
(0.0975293 0.000199054 0)
(0.0974872 0.00021037 0)
(0.0974432 0.000226247 0)
(0.0973971 0.000247351 0)
(0.0973484 0.000274409 0)
(0.0972969 0.000308215 0)
(0.0972421 0.000349638 0)
(0.0971838 0.00039963 0)
(0.0971216 0.000459232 0)
(0.0970554 0.000529589 0)
(0.0969849 0.000611956 0)
(0.0969101 0.000707709 0)
(0.0968309 0.000818358 0)
(0.0967475 0.000945553 0)
(0.0966601 0.00109109 0)
(0.0965693 0.00125693 0)
(0.0964759 0.00144516 0)
(0.096381 0.00165804 0)
(0.0962861 0.00189791 0)
(0.0961932 0.00216722 0)
(0.0961047 0.00246843 0)
(0.0960239 0.00280392 0)
(0.0959547 0.00317592 0)
(0.0959017 0.00358628 0)
(0.0958706 0.00403632 0)
(0.0958676 0.00452654 0)
(0.0959001 0.00505634 0)
(0.0959758 0.00562366 0)
(0.0961031 0.00622459 0)
(0.0962901 0.00685304 0)
(0.0965444 0.00750045 0)
(0.0968721 0.00815557 0)
(0.097277 0.00880465 0)
(0.0977592 0.00943185 0)
(0.0983148 0.0100203 0)
(0.0989344 0.0105539 0)
(0.100003 -2.58011e-05 0)
(0.100015 -3.07307e-05 0)
(0.10003 -5.82848e-06 0)
(0.10004 4.95861e-05 0)
(0.100038 0.000128034 0)
(0.10002 0.000215509 0)
(0.0999817 0.000296711 0)
(0.0999238 0.000360336 0)
(0.0998492 0.000401702 0)
(0.0997625 0.000422239 0)
(0.0996686 0.000427064 0)
(0.0995717 0.000422296 0)
(0.099475 0.000413167 0)
(0.0993806 0.00040322 0)
(0.0992894 0.000394327 0)
(0.099202 0.000387115 0)
(0.0991183 0.000381484 0)
(0.0990381 0.000377014 0)
(0.0989611 0.000373221 0)
(0.098887 0.00036969 0)
(0.0988157 0.000366109 0)
(0.098747 0.000362272 0)
(0.0986806 0.000358051 0)
(0.0986165 0.000353371 0)
(0.0985546 0.000348197 0)
(0.0984948 0.000342514 0)
(0.098437 0.000336327 0)
(0.0983812 0.000329647 0)
(0.0983272 0.0003225 0)
(0.0982751 0.000314925 0)
(0.0982246 0.000306972 0)
(0.0981757 0.000298712 0)
(0.0981283 0.000290233 0)
(0.0980822 0.000281647 0)
(0.0980373 0.000273093 0)
(0.0979934 0.000264733 0)
(0.0979503 0.000256765 0)
(0.097908 0.000249413 0)
(0.097866 0.000242939 0)
(0.0978244 0.000237638 0)
(0.0977827 0.00023384 0)
(0.0977408 0.000231916 0)
(0.0976984 0.000232272 0)
(0.0976553 0.000235358 0)
(0.0976112 0.000241665 0)
(0.0975658 0.000251727 0)
(0.0975189 0.000266126 0)
(0.0974701 0.000285493 0)
(0.0974193 0.00031051 0)
(0.0973662 0.000341917 0)
(0.0973105 0.000380512 0)
(0.0972521 0.000427157 0)
(0.0971907 0.000482787 0)
(0.0971263 0.000548406 0)
(0.0970589 0.000625103 0)
(0.0969884 0.000714047 0)
(0.0969151 0.000816494 0)
(0.0968392 0.000933793 0)
(0.096761 0.00106738 0)
(0.0966814 0.00121876 0)
(0.0966009 0.00138955 0)
(0.0965209 0.00158138 0)
(0.0964426 0.00179593 0)
(0.0963679 0.00203488 0)
(0.0962988 0.00229985 0)
(0.0962381 0.00259231 0)
(0.0961889 0.00291354 0)
(0.0961546 0.00326446 0)
(0.0961395 0.00364557 0)
(0.0961483 0.0040567 0)
(0.0961859 0.00449693 0)
(0.0962577 0.00496432 0)
(0.0963693 0.0054558 0)
(0.0965261 0.00596696 0)
(0.096733 0.00649195 0)
(0.0969942 0.00702346 0)
(0.0973124 0.00755279 0)
(0.0976886 0.00807011 0)
(0.0981217 0.00856487 0)
(0.0986078 0.00902658 0)
(0.0991403 0.00944563 0)
(0.100003 -2.94136e-05 0)
(0.100015 -3.65221e-05 0)
(0.10003 -1.13714e-05 0)
(0.100043 4.71062e-05 0)
(0.100045 0.000131444 0)
(0.100032 0.000227025 0)
(0.100001 0.000317421 0)
(0.0999507 0.00039003 0)
(0.0998836 0.000439098 0)
(0.0998036 0.000465438 0)
(0.0997153 0.000474042 0)
(0.0996229 0.000471272 0)
(0.0995298 0.000462796 0)
(0.0994382 0.000452621 0)
(0.0993493 0.000443015 0)
(0.0992639 0.000434892 0)
(0.099182 0.000428331 0)
(0.0991035 0.000423002 0)
(0.0990281 0.000418459 0)
(0.0989557 0.000414288 0)
(0.098886 0.000410165 0)
(0.0988187 0.000405865 0)
(0.0987537 0.000401243 0)
(0.0986908 0.000396215 0)
(0.09863 0.000390734 0)
(0.0985711 0.000384786 0)
(0.098514 0.000378371 0)
(0.0984587 0.000371508 0)
(0.098405 0.000364228 0)
(0.0983529 0.000356577 0)
(0.0983021 0.000348618 0)
(0.0982527 0.000340433 0)
(0.0982044 0.000332125 0)
(0.0981571 0.000323821 0)
(0.0981107 0.000315675 0)
(0.098065 0.000307869 0)
(0.0980198 0.000300616 0)
(0.0979749 0.000294161 0)
(0.0979302 0.000288785 0)
(0.0978854 0.000284802 0)
(0.0978403 0.000282563 0)
(0.0977948 0.000282458 0)
(0.0977486 0.000284912 0)
(0.0977014 0.000290394 0)
(0.0976531 0.000299409 0)
(0.0976035 0.000312505 0)
(0.0975524 0.000330275 0)
(0.0974995 0.000353352 0)
(0.0974448 0.000382417 0)
(0.097388 0.0004182 0)
(0.0973291 0.000461476 0)
(0.0972681 0.000513074 0)
(0.0972049 0.000573874 0)
(0.0971395 0.000644809 0)
(0.0970722 0.000726868 0)
(0.0970031 0.00082109 0)
(0.0969327 0.000928565 0)
(0.0968614 0.00105042 0)
(0.0967898 0.00118784 0)
(0.0967188 0.001342 0)
(0.0966495 0.00151411 0)
(0.096583 0.00170533 0)
(0.096521 0.00191679 0)
(0.0964653 0.0021495 0)
(0.0964181 0.00240434 0)
(0.0963817 0.00268197 0)
(0.096359 0.00298273 0)
(0.0963531 0.00330662 0)
(0.0963673 0.00365315 0)
(0.0964054 0.00402125 0)
(0.0964709 0.00440918 0)
(0.0965677 0.00481446 0)
(0.0966993 0.00523373 0)
(0.0968691 0.00566281 0)
(0.0970798 0.0060966 0)
(0.0973333 0.00652927 0)
(0.0976305 0.00695428 0)
(0.0979711 0.00736472 0)
(0.0983533 0.00775358 0)
(0.0987739 0.00811418 0)
(0.0992281 0.00844072 0)
(0.100003 -3.32457e-05 0)
(0.100015 -4.28404e-05 0)
(0.100031 -1.78445e-05 0)
(0.100044 4.32311e-05 0)
(0.10005 0.00013304 0)
(0.100042 0.0002365 0)
(0.100016 0.000336154 0)
(0.099973 0.000418124 0)
(0.0999129 0.000475505 0)
(0.0998396 0.000508374 0)
(0.0997572 0.000521472 0)
(0.0996698 0.000521313 0)
(0.0995808 0.000513954 0)
(0.0994925 0.000503862 0)
(0.0994065 0.000493723 0)
(0.0993234 0.000484772 0)
(0.0992437 0.0004773 0)
(0.0991671 0.000471101 0)
(0.0990936 0.000465786 0)
(0.0990228 0.000460958 0)
(0.0989547 0.00045629 0)
(0.0988888 0.000451544 0)
(0.0988252 0.000446561 0)
(0.0987635 0.000441244 0)
(0.0987037 0.000435542 0)
(0.0986456 0.000429433 0)
(0.0985892 0.000422921 0)
(0.0985342 0.000416027 0)
(0.0984806 0.00040879 0)
(0.0984283 0.000401265 0)
(0.0983772 0.000393526 0)
(0.098327 0.000385666 0)
(0.0982777 0.000377804 0)
(0.0982291 0.00037008 0)
(0.0981811 0.000362665 0)
(0.0981335 0.000355754 0)
(0.098086 0.000349579 0)
(0.0980387 0.0003444 0)
(0.0979912 0.000340511 0)
(0.0979433 0.000338244 0)
(0.097895 0.000337962 0)
(0.097846 0.000340067 0)
(0.0977962 0.000344996 0)
(0.0977454 0.000353222 0)
(0.0976934 0.000365257 0)
(0.09764 0.000381649 0)
(0.0975853 0.00040298 0)
(0.097529 0.000429874 0)
(0.0974712 0.000462988 0)
(0.0974117 0.000503015 0)
(0.0973507 0.000550686 0)
(0.0972881 0.000606765 0)
(0.0972241 0.000672048 0)
(0.097159 0.000747364 0)
(0.097093 0.000833565 0)
(0.0970265 0.000931526 0)
(0.0969601 0.00104213 0)
(0.0968943 0.00116628 0)
(0.0968301 0.00130484 0)
(0.0967683 0.00145866 0)
(0.0967101 0.00162855 0)
(0.0966568 0.00181522 0)
(0.09661 0.00201928 0)
(0.0965714 0.00224119 0)
(0.096543 0.00248119 0)
(0.0965268 0.00273931 0)
(0.0965254 0.00301524 0)
(0.0965411 0.00330833 0)
(0.0965766 0.00361751 0)
(0.0966344 0.00394123 0)
(0.0967172 0.00427745 0)
(0.0968275 0.00462356 0)
(0.0969674 0.00497642 0)
(0.0971387 0.00533236 0)
(0.0973426 0.00568724 0)
(0.09758 0.00603652 0)
(0.0978506 0.00637545 0)
(0.0981536 0.00669918 0)
(0.0984871 0.007003 0)
(0.0988485 0.00728261 0)
(0.0992343 0.00753437 0)
(0.100003 -3.72745e-05 0)
(0.100014 -4.96178e-05 0)
(0.10003 -2.51184e-05 0)
(0.100045 3.81508e-05 0)
(0.100053 0.000133042 0)
(0.100048 0.000244127 0)
(0.100028 0.000353023 0)
(0.0999904 0.000444604 0)