/*--------------------------------*- C++ -*----------------------------------*\
| =========                 |                                                 |
| \\      /  F ield         | OpenFOAM: The Open Source CFD Toolbox           |
|  \\    /   O peration     | Version:  4.1                                   |
|   \\  /    A nd           | Web:      www.OpenFOAM.org                      |
|    \\/     M anipulation  |                                                 |
\*---------------------------------------------------------------------------*/
FoamFile
{
    version     2.0;
    format      ascii;
    class       volScalarField;
    location    "0.8";
    object      gradTy;
}
// * * * * * * * * * * * * * * * * * * * * * * * * * * * * * * * * * * * * * //

dimensions      [0 -1 0 1 0 0 0];

internalField   nonuniform List<scalar> 
512
(
-27.1696
-27.0732
-26.8959
-26.6633
-26.402
-26.1356
-25.8808
-25.6483
-25.4436
-25.2685
-25.1223
-25.0029
-24.9079
-24.8343
-24.7797
-24.742
-24.7196
-24.7115
-24.7174
-24.7375
-24.7728
-24.8244
-24.894
-24.9831
-25.0927
-25.2225
-25.3697
-25.5284
-25.6879
-25.8329
-25.9451
-26.0067
-27.1927
-27.0923
-26.9087
-26.6693
-26.4022
-26.1315
-25.874
-25.6401
-25.4349
-25.2599
-25.1142
-24.9954
-24.901
-24.8281
-24.774
-24.7366
-24.7145
-24.7064
-24.7123
-24.7322
-24.7671
-24.8184
-24.8876
-24.9765
-25.0862
-25.2166
-25.3654
-25.5267
-25.6901
-25.8398
-25.9564
-26.0208
-27.2398
-27.1312
-26.9344
-26.6811
-26.4022
-26.1229
-25.86
-25.6234
-25.4173
-25.2427
-25.0979
-24.9804
-24.8874
-24.8156
-24.7626
-24.726
-24.7043
-24.6964
-24.7021
-24.7216
-24.7559
-24.8063
-24.8748
-24.9632
-25.073
-25.2047
-25.3565
-25.5232
-25.6943
-25.8536
-25.9794
-26.0497
-27.3131
-27.1911
-26.9733
-26.6982
-26.4012
-26.1091
-25.8384
-25.5978
-25.3906
-25.2166
-25.0734
-24.958
-24.8669
-24.7971
-24.7456
-24.7101
-24.6891
-24.6815
-24.6869
-24.7058
-24.739
-24.7882
-24.8555
-24.943
-25.0529
-25.1863
-25.3425
-25.5172
-25.7002
-25.8744
-26.015
-26.0948
-27.416
-27.2739
-27.0255
-26.7197
-26.3979
-26.0887
-25.8079
-25.5627
-25.3544
-25.1815
-25.0406
-24.928
-24.8398
-24.7725
-24.7231
-24.6892
-24.6691
-24.6618
-24.667
-24.6849
-24.7168
-24.7642
-24.8296
-24.9158
-25.0254
-25.1608
-25.3226
-25.5077
-25.707
-25.9024
-26.0646
-26.1587
-27.5534
-27.3822
-27.0911
-26.7441
-26.3904
-26.0601
-25.7675
-25.5171
-25.3081
-25.1371
-24.9994
-24.8906
-24.8061
-24.7421
-24.6954
-24.6634
-24.6445
-24.6376
-24.6423
-24.6591
-24.6891
-24.7342
-24.7972
-24.8812
-24.9901
-25.1274
-25.2954
-25.4933
-25.7136
-25.9374
-26.1299
-26.2447
-27.7326
-27.5195
-27.1697
-26.769
-26.376
-26.021
-25.7152
-25.4599
-25.251
-25.083
-24.9497
-24.8457
-24.7658
-24.7058
-24.6624
-24.6329
-24.6154
-24.609
-24.6132
-24.6285
-24.6562
-24.6983
-24.7579
-24.8391
-24.9463
-25.0849
-25.2595
-25.472
-25.7179
-25.9789
-26.2133
-26.3581
-27.9643
-27.6899
-27.2601
-26.791
-26.351
-25.9683
-25.6492
-25.3898
-25.1824
-25.0189
-24.8913
-24.7933
-24.719
-24.664
-24.6246
-24.5979
-24.5821
-24.5761
-24.5797
-24.5933
-24.6182
-24.6565
-24.7118
-24.7889
-24.8932
-25.0319
-25.2126
-25.441
-25.717
-26.0258
-26.3178
-26.5062
-28.2636
-27.8983
-27.3593
-26.8047
-26.3106
-25.8986
-25.567
-25.3053
-25.1016
-24.9443
-24.8241
-24.7334
-24.666
-24.6167
-24.5819
-24.5586
-24.5447
-24.5393
-24.5421
-24.5537
-24.5752
-24.6089
-24.6588
-24.7303
-24.8299
-24.9669
-25.1523
-25.3965
-25.7066
-26.0753
-26.4468
-26.7001
-28.6534
-28.1492
-27.4613
-26.8022
-26.2486
-25.8075
-25.4661
-25.205
-25.0077
-24.8591
-24.748
-24.6663
-24.6069
-24.5643
-24.5349
-24.5153
-24.5035
-24.4988
-24.5008
-24.51
-24.5275
-24.5556
-24.5987
-24.6631
-24.7558
-24.8884
-25.0757
-25.3342
-25.68
-26.1227
-26.6039
-26.956
-29.1684
-28.4451
-27.5552
-26.7724
-26.1573
-25.6905
-25.3439
-25.0876
-24.9004
-24.7631
-24.6631
-24.5923
-24.5421
-24.5071
-24.4838
-24.4685
-24.4591
-24.4551
-24.4561
-24.4626
-24.4757
-24.4971
-24.5318
-24.5873
-24.6702
-24.7947
-24.9799
-25.2487
-25.6278
-26.1592
-26.792
-27.2986
-29.8634
-28.782
-27.6214
-26.6998
-26.028
-25.5423
-25.198
-24.9516
-24.7794
-24.6566
-24.5697
-24.5116
-24.4722
-24.4457
-24.4294
-24.4189
-24.4119
-24.4088
-24.4087
-24.4123
-24.4203
-24.4338
-24.4584
-24.5033
-24.573
-24.6846
-24.862
-25.1343
-25.5364
-26.169
-27.0105
-27.7669
-30.8279
-29.1381
-27.6268
-26.5638
-25.8512
-25.3577
-25.0266
-24.7959
-24.6448
-24.5398
-24.4677
-24.4251
-24.3976
-24.3802
-24.3722
-24.367
-24.3624
-24.3602
-24.359
-24.3593
-24.3623
-24.3664
-24.3785
-24.4117
-24.4638
-24.5566
-24.719
-24.9862
-25.386
-26.1255
-27.2491
-28.4232
-32.2142
-29.4492
-27.5192
-26.3392
-25.6185
-25.1314
-24.8287
-24.6189
-24.4973
-24.4134
-24.3567
-24.3331
-24.319
-24.3108
-24.3125
-24.3133
-24.3105
-24.3098
-24.3071
-24.3041
-24.3022
-24.2952
-24.2916
-24.3137
-24.3429
-24.4096
-24.5483
-24.8033
-25.1493
-25.9845
-27.4739
-29.3715
-34.2909
-29.5508
-27.2234
-25.9988
-25.3263
-24.8578
-24.6065
-24.4186
-24.339
-24.2786
-24.2361
-24.2372
-24.2373
-24.2372
-24.2515
-24.259
-24.2565
-24.2582
-24.2537
-24.2469
-24.2418
-24.2217
-24.1967
-24.2125
-24.2111
-24.2431
-24.347
-24.5963
-24.7888
-25.6786
-27.5954
-30.793
-37.5522
-29.0485
-26.6513
-25.5196
-24.9822
-24.5288
-24.3672
-24.19
-24.1745
-24.1381
-24.1031
-24.1402
-24.1542
-24.1587
-24.1908
-24.2057
-24.2
-24.2067
-24.1995
-24.1879
-24.1837
-24.148
-24.0901
-24.1141
-24.0695
-24.0572
-24.1081
-24.4021
-24.2529
-25.1149
-27.3955
-33.0133
)
;

boundaryField
{
    left
    {
        type            calculated;
        value           nonuniform List<scalar> 
16
(
-27.1696
-27.1927
-27.2398
-27.3131
-27.416
-27.5534
-27.7326
-27.9643
-28.2636
-28.6534
-29.1684
-29.8634
-30.8279
-32.2142
-34.2909
-37.5522
)
;
    }
    right
    {
        type            calculated;
        value           nonuniform List<scalar> 
16
(
-26.0067
-26.0208
-26.0497
-26.0948
-26.1587
-26.2447
-26.3581
-26.5062
-26.7001
-26.956
-27.2986
-27.7669
-28.4232
-29.3715
-30.793
-33.0133
)
;
    }
    interface
    {
        type            calculated;
        value           nonuniform List<scalar> 
32
(
-39.5593
-28.5769
-26.285
-25.2428
-24.799
-24.3491
-24.2447
-24.0677
-24.0915
-24.0667
-24.033
-24.0918
-24.1125
-24.118
-24.1607
-24.1795
-24.171
-24.1811
-24.1722
-24.1579
-24.1556
-24.1114
-24.0332
-24.0667
-23.9964
-23.9594
-23.9777
-24.3152
-23.9334
-24.7553
-27.1767
-34.3756
)
;
    }
    bottom
    {
        type            calculated;
        value           nonuniform List<scalar> 
32
(
-27.1639
-27.0684
-26.8927
-26.6617
-26.402
-26.1366
-25.8825
-25.6503
-25.4458
-25.2706
-25.1243
-25.0048
-24.9096
-24.8359
-24.7811
-24.7433
-24.7209
-24.7128
-24.7187
-24.7389
-24.7742
-24.8259
-24.8956
-24.9848
-25.0944
-25.2239
-25.3708
-25.5288
-25.6873
-25.8312
-25.9423
-26.0032
)
;
    }
    defaultFaces
    {
        type            empty;
    }
}


// ************************************************************************* //
