/*--------------------------------*- C++ -*----------------------------------*\
| =========                 |                                                 |
| \\      /  F ield         | OpenFOAM: The Open Source CFD Toolbox           |
|  \\    /   O peration     | Version:  4.1                                   |
|   \\  /    A nd           | Web:      www.OpenFOAM.org                      |
|    \\/     M anipulation  |                                                 |
\*---------------------------------------------------------------------------*/
FoamFile
{
    version     2.0;
    format      ascii;
    class       volScalarField;
    location    "0.8";
    object      gradTx;
}
// * * * * * * * * * * * * * * * * * * * * * * * * * * * * * * * * * * * * * //

dimensions      [0 -1 0 1 0 0 0];

internalField   nonuniform List<scalar> 
512
(
0.0119321
0.0338912
0.0508314
0.0613458
0.065643
0.0649384
0.0607844
0.0545824
0.0474599
0.0401852
0.033229
0.0268422
0.0211202
0.0160533
0.0115645
0.00753509
0.00382281
0.000274569
-0.00326405
-0.00694008
-0.0108816
-0.0151796
-0.0198597
-0.0248425
-0.0298914
-0.0345526
-0.0381058
-0.0395659
-0.0378053
-0.0318718
-0.0215023
-0.00761867
0.0362766
0.102934
0.154109
0.185598
0.19819
0.195691
0.182873
0.163992
0.142431
0.120486
0.0995531
0.0803679
0.0632033
0.0480211
0.0345834
0.0225297
0.0114301
0.000822986
-0.0097571
-0.0207541
-0.0325567
-0.0454451
-0.0595063
-0.0745147
-0.0897755
-0.10394
-0.114847
-0.11951
-0.114467
-0.096732
-0.0653922
-0.0231975
0.0621072
0.17586
0.262336
0.314596
0.33454
0.329063
0.306505
0.274112
0.237536
0.200564
0.165466
0.13341
0.10481
0.0795696
0.0572701
0.0372965
0.0189221
0.00136949
-0.0161439
-0.0343674
-0.0539638
-0.0754234
-0.0989246
-0.124135
-0.149948
-0.17416
-0.193169
-0.201903
-0.194324
-0.165015
-0.112013
-0.039833
0.0905777
0.25562
0.379159
0.451714
0.477286
0.466776
0.432642
0.385341
0.3328
0.280224
0.230659
0.185626
0.14561
0.110411
0.0793982
0.0516814
0.0262213
0.00191411
-0.0223501
-0.0476388
-0.0749109
-0.104901
-0.13793
-0.173624
-0.210545
-0.24571
-0.274097
-0.288414
-0.279657
-0.239259
-0.163447
-0.0583435
0.123117
0.345771
0.508782
0.600641
0.629109
0.610493
0.562137
0.497965
0.428154
0.3592
0.294778
0.236639
0.18525
0.140243
0.100734
0.0655263
0.0332496
0.00245852
-0.028296
-0.0604165
-0.0951865
-0.133634
-0.17629
-0.222835
-0.271617
-0.319
-0.358594
-0.380751
-0.372957
-0.322408
-0.222222
-0.0797451
0.161613
0.450848
0.656259
0.765503
0.79277
0.761769
0.695668
0.612104
0.523397
0.43713
0.357402
0.28603
0.223351
0.168749
0.121032
0.0786687
0.0399277
0.00300666
-0.0338956
-0.072535
-0.114554
-0.161333
-0.213706
-0.271522
-0.333087
-0.394295
-0.447518
-0.480648
-0.477019
-0.418026
-0.291577
-0.105383
0.208692
0.576902
0.827852
0.950974
0.971083
0.921973
0.833668
0.727652
0.618154
0.513532
0.418029
0.333328
0.259502
0.195591
0.14004
0.0909414
0.0461763
0.00356517
-0.0390557
-0.083813
-0.132744
-0.187657
-0.249794
-0.319319
-0.394705
-0.471657
-0.541547
-0.589822
-0.595004
-0.530571
-0.375862
-0.137137
0.268174
0.732303
1.03149
1.16235
1.16681
1.09216
0.97622
0.844213
0.711835
0.587784
0.476067
0.378002
0.293256
0.220412
0.15749
0.102173
0.0519156
0.0041434
-0.0436759
-0.0940529
-0.149455
-0.212203
-0.284075
-0.365704
-0.456001
-0.55087
-0.641078
-0.709866
-0.730484
-0.665749
-0.481137
-0.177741
0.345848
0.928991
1.27732
1.4055
1.38244
1.27289
1.12294
0.961034
0.803603
0.659102
0.530821
0.419458
0.32413
0.242831
0.173102
0.112187
0.0570673
0.00475311
-0.0476501
-0.103043
-0.164349
-0.2345
-0.315964
-0.409987
-0.516234
-0.631348
-0.746073
-0.842061
-0.8874
-0.83096
-0.616095
-0.231336
0.450822
1.18447
1.5783
1.68667
1.61987
1.46397
1.27285
1.07693
0.892328
0.726537
0.581497
0.457035
0.351606
0.262448
0.186582
0.120808
0.0615556
0.0054073
-0.0508699
-0.110562
-0.177054
-0.254007
-0.344768
-0.451288
-0.574345
-0.712033
-0.855877
-0.987035
-1.06986
-1.03585
-0.793533
-0.304393
0.597965
1.52502
1.9508
2.01188
1.87978
1.66413
1.42419
1.19021
0.976567
0.788981
0.627199
0.489999
0.375139
0.278844
0.19762
0.12786
0.0653099
0.00611807
-0.0532285
-0.11639
-0.187169
-0.270104
-0.369695
-0.488537
-0.628902
-0.791303
-0.968988
-1.14422
-1.28164
-1.29289
-1.03272
-0.407373
0.812477
1.99105
2.41465
2.38562
2.16083
1.87069
1.57431
1.29866
1.05453
0.845188
0.666945
0.51754
0.394164
0.291583
0.205879
0.133175
0.0682694
0.00689318
-0.0546261
-0.120323
-0.194273
-0.282084
-0.389878
-0.5205
-0.678066
-0.866886
-1.08286
-1.31099
-1.52509
-1.61791
-1.36328
-0.557733
1.13868
2.64604
2.99191
2.80854
2.45851
2.07914
1.71954
1.39951
1.12406
0.893856
0.699685
0.538748
0.408137
0.300219
0.21098
0.136608
0.0703935
0.00773016
-0.0549728
-0.122206
-0.197944
-0.289121
-0.404431
-0.545828
-0.719542
-0.935826
-1.19386
-1.48141
-1.799
-2.02994
-1.83167
-0.785601
1.65738
3.59163
3.70184
3.27339
2.76384
2.28301
1.85522
1.48953
1.18256
0.933773
0.724339
0.552562
0.416592
0.304312
0.212462
0.138075
0.0716788
0.00860397
-0.054181
-0.121978
-0.19779
-0.290183
-0.412547
-0.563188
-0.750512
-0.994486
-1.29765
-1.64448
-2.09475
-2.54947
-2.51212
-1.14475
2.52115
4.99351
4.54693
3.75889
3.06239
2.47402
1.97577
1.56523
1.22684
0.964141
0.739827
0.557635
0.419298
0.303435
0.209685
0.137625
0.0721878
0.00943472
-0.0521292
-0.119762
-0.193529
-0.283814
-0.413685
-0.571498
-0.767467
-1.03852
-1.39071
-1.78188
-2.3896
-3.19227
-3.52518
-1.73439
4.0274
7.12536
5.47786
4.22196
3.33436
2.64293
2.0748
1.62328
1.25255
0.98522
0.745049
0.551962
0.416566
0.297173
0.201593
0.1356
0.0720806
0.00999629
-0.0485556
-0.11603
-0.185179
-0.267614
-0.407937
-0.570398
-0.765805
-1.06244
-1.47424
-1.86538
-2.63594
-3.95277
-5.06932
-2.74355
)
;

boundaryField
{
    left
    {
        type            calculated;
        value           uniform 0;
    }
    right
    {
        type            calculated;
        value           uniform 0;
    }
    interface
    {
        type            calculated;
        value           nonuniform List<scalar> 
32
(
4.0274
7.12536
5.47786
4.22196
3.33436
2.64293
2.0748
1.62328
1.25255
0.98522
0.745049
0.551962
0.416566
0.297173
0.201593
0.1356
0.0720806
0.00999629
-0.0485556
-0.11603
-0.185179
-0.267614
-0.407937
-0.570398
-0.765805
-1.06244
-1.47424
-1.86538
-2.63594
-3.95277
-5.06932
-2.74355
)
;
    }
    bottom
    {
        type            calculated;
        value           nonuniform List<scalar> 
32
(
0.0119321
0.0338912
0.0508314
0.0613458
0.065643
0.0649384
0.0607844
0.0545824
0.0474599
0.0401852
0.033229
0.0268422
0.0211202
0.0160533
0.0115645
0.00753509
0.00382281
0.000274569
-0.00326405
-0.00694008
-0.0108816
-0.0151796
-0.0198597
-0.0248425
-0.0298914
-0.0345526
-0.0381058
-0.0395659
-0.0378053
-0.0318718
-0.0215023
-0.00761867
)
;
    }
    defaultFaces
    {
        type            empty;
    }
}


// ************************************************************************* //
