/*--------------------------------*- C++ -*----------------------------------*\
| =========                 |                                                 |
| \\      /  F ield         | OpenFOAM: The Open Source CFD Toolbox           |
|  \\    /   O peration     | Version:  4.1                                   |
|   \\  /    A nd           | Web:      www.OpenFOAM.org                      |
|    \\/     M anipulation  |                                                 |
\*---------------------------------------------------------------------------*/
FoamFile
{
    version     2.0;
    format      ascii;
    class       volScalarField;
    location    "0.8";
    object      T;
}
// * * * * * * * * * * * * * * * * * * * * * * * * * * * * * * * * * * * * * //

dimensions      [0 0 0 1 0 0 0];

internalField   nonuniform List<scalar> 
512
(
309.788
309.789
309.79
309.792
309.794
309.796
309.798
309.8
309.801
309.803
309.804
309.805
309.805
309.806
309.806
309.807
309.807
309.807
309.807
309.807
309.806
309.806
309.806
309.805
309.804
309.803
309.802
309.801
309.799
309.798
309.797
309.797
309.363
309.365
309.37
309.375
309.381
309.387
309.393
309.399
309.404
309.408
309.411
309.414
309.416
309.418
309.419
309.42
309.421
309.421
309.421
309.42
309.419
309.418
309.417
309.414
309.412
309.409
309.405
309.402
309.398
309.395
309.392
309.39
308.938
308.942
308.949
308.958
308.969
308.979
308.989
308.998
309.006
309.013
309.019
309.024
309.027
309.03
309.032
309.034
309.035
309.035
309.035
309.034
309.032
309.03
309.028
309.024
309.02
309.015
309.009
309.003
308.997
308.991
308.986
308.984
308.512
308.518
308.528
308.541
308.556
308.571
308.585
308.598
308.609
308.619
308.627
308.633
308.639
308.642
308.645
308.647
308.649
308.649
308.649
308.648
308.646
308.643
308.639
308.634
308.628
308.621
308.613
308.604
308.595
308.587
308.58
308.576
308.084
308.092
308.106
308.124
308.144
308.163
308.182
308.198
308.213
308.225
308.235
308.244
308.25
308.255
308.259
308.261
308.263
308.264
308.263
308.262
308.259
308.256
308.251
308.245
308.237
308.228
308.217
308.205
308.193
308.182
308.173
308.168
307.655
307.665
307.683
307.706
307.731
307.756
307.779
307.799
307.817
307.832
307.844
307.854
307.862
307.868
307.873
307.876
307.878
307.878
307.878
307.876
307.873
307.869
307.863
307.856
307.846
307.835
307.822
307.807
307.792
307.777
307.766
307.759
307.223
307.236
307.259
307.288
307.319
307.349
307.377
307.401
307.422
307.44
307.454
307.466
307.475
307.482
307.487
307.491
307.493
307.494
307.493
307.491
307.488
307.483
307.476
307.467
307.456
307.443
307.427
307.409
307.39
307.372
307.357
307.348
306.789
306.805
306.834
306.87
306.907
306.943
306.975
307.004
307.028
307.048
307.065
307.078
307.088
307.096
307.102
307.106
307.108
307.109
307.109
307.107
307.103
307.097
307.09
307.08
307.067
307.051
307.032
307.011
306.988
306.965
306.946
306.935
306.35
306.371
306.408
306.451
306.495
306.537
306.575
306.608
306.635
306.658
306.676
306.691
306.702
306.711
306.718
306.722
306.725
306.726
306.725
306.723
306.719
306.712
306.704
306.693
306.678
306.66
306.639
306.614
306.586
306.558
306.534
306.52
305.905
305.933
305.979
306.032
306.085
306.133
306.176
306.213
306.244
306.269
306.289
306.305
306.318
306.327
306.334
306.339
306.341
306.343
306.342
306.339
306.335
306.328
306.319
306.307
306.291
306.271
306.246
306.217
306.185
306.15
306.12
306.101
305.454
305.492
305.549
305.613
305.675
305.731
305.779
305.82
305.854
305.881
305.903
305.92
305.934
305.944
305.951
305.956
305.959
305.96
305.959
305.957
305.952
305.945
305.935
305.922
305.905
305.883
305.855
305.822
305.784
305.742
305.703
305.677
304.994
305.045
305.118
305.195
305.267
305.331
305.384
305.429
305.465
305.495
305.518
305.537
305.551
305.561
305.569
305.574
305.577
305.578
305.578
305.575
305.57
305.563
305.552
305.538
305.52
305.496
305.466
305.428
305.384
305.333
305.283
305.248
304.521
304.592
304.686
304.779
304.862
304.933
304.992
305.04
305.079
305.11
305.135
305.154
305.169
305.18
305.188
305.193
305.196
305.197
305.197
305.194
305.189
305.181
305.171
305.156
305.137
305.111
305.078
305.037
304.986
304.924
304.859
304.81
304.03
304.134
304.255
304.365
304.459
304.538
304.602
304.654
304.695
304.728
304.754
304.773
304.788
304.799
304.807
304.813
304.816
304.817
304.816
304.814
304.809
304.801
304.791
304.775
304.755
304.729
304.693
304.647
304.59
304.517
304.431
304.36
303.514
303.672
303.826
303.956
304.061
304.147
304.216
304.271
304.314
304.348
304.374
304.394
304.409
304.42
304.428
304.433
304.436
304.438
304.437
304.434
304.429
304.422
304.412
304.396
304.376
304.348
304.311
304.261
304.2
304.112
304
303.892
302.959
303.211
303.404
303.553
303.668
303.761
303.833
303.891
303.935
303.969
303.996
304.016
304.031
304.042
304.049
304.054
304.058
304.059
304.058
304.056
304.051
304.044
304.034
304.019
303.999
303.971
303.932
303.879
303.816
303.714
303.569
303.397
)
;

boundaryField
{
    left
    {
        type            zeroGradient;
    }
    right
    {
        type            zeroGradient;
    }
    interface
    {
        type            fixedValue;
        value           nonuniform List<scalar> 
32
(
302.658
302.996
303.208
303.366
303.485
303.583
303.656
303.716
303.76
303.795
303.823
303.842
303.857
303.868
303.876
303.881
303.884
303.885
303.885
303.883
303.878
303.871
303.862
303.846
303.826
303.798
303.759
303.703
303.643
303.534
303.369
303.141
)
;
    }
    bottom
    {
        type            fixedValue;
        value           uniform 310;
    }
    defaultFaces
    {
        type            empty;
    }
}


// ************************************************************************* //
