# vtk DataFile Version 3.0
vtk output
ASCII
DATASET UNSTRUCTURED_GRID
POINTS 286 float
-3.000000e+00	0.000000e+00	0.000000e+00	-3.000000e+00	0.000000e+00	4.000000e+00	-5.000000e-02	0.000000e+00	0.000000e+00	8.430215e-01	0.000000e+00	2.629862e-01	8.209963e-01	0.000000e+00	1.646264e-01	5.000000e-02	0.000000e+00	0.000000e+00	3.000000e+00	0.000000e+00	0.000000e+00	3.000000e+00	0.000000e+00	4.000000e+00	-3.000000e+00	3.000000e-01	0.000000e+00	-5.000000e-02	3.000000e-01	0.000000e+00	8.430218e-01	3.000000e-01	2.629860e-01	8.209964e-01	3.000000e-01	1.646262e-01	5.000000e-02	3.000000e-01	0.000000e+00	3.000000e+00	3.000000e-01	0.000000e+00	3.000000e+00	3.000000e-01	4.000000e+00	-3.000000e+00	3.000000e-01	4.000000e+00	-2.132422e+00	0.000000e+00	0.000000e+00	-1.468963e+00	0.000000e+00	0.000000e+00	-9.616002e-01	0.000000e+00	0.000000e+00	-5.736073e-01	0.000000e+00	0.000000e+00	-2.768996e-01	0.000000e+00	0.000000e+00	3.628318e-02	0.000000e+00	2.101933e-01	2.277685e-01	0.000000e+00	3.229185e-01	4.426371e-01	0.000000e+00	3.393399e-01	6.465881e-01	0.000000e+00	3.061883e-01	6.262878e-01	0.000000e+00	2.085142e-01	4.354292e-01	0.000000e+00	2.395425e-01	2.540948e-01	0.000000e+00	2.272217e-01	1.099554e-01	0.000000e+00	1.445907e-01	2.768996e-01	0.000000e+00	0.000000e+00	5.736073e-01	0.000000e+00	0.000000e+00	9.616002e-01	0.000000e+00	0.000000e+00	1.468963e+00	0.000000e+00	0.000000e+00	2.132422e+00	0.000000e+00	0.000000e+00	3.000000e+00	0.000000e+00	1.000000e+00	3.000000e+00	0.000000e+00	2.000000e+00	3.000000e+00	0.000000e+00	3.000000e+00	2.000000e+00	0.000000e+00	4.000000e+00	1.000000e+00	0.000000e+00	4.000000e+00	1.102274e-11	0.000000e+00	4.000000e+00	-1.000000e+00	0.000000e+00	4.000000e+00	-2.000000e+00	0.000000e+00	4.000000e+00	-3.000000e+00	0.000000e+00	3.000000e+00	-3.000000e+00	0.000000e+00	2.000000e+00	-3.000000e+00	0.000000e+00	1.000000e+00	-2.132422e+00	3.000000e-01	0.000000e+00	-1.468963e+00	3.000000e-01	0.000000e+00	-9.616002e-01	3.000000e-01	0.000000e+00	-5.736073e-01	3.000000e-01	0.000000e+00	-2.768996e-01	3.000000e-01	0.000000e+00	3.628320e-02	3.000000e-01	2.101933e-01	2.277684e-01	3.000000e-01	3.229185e-01	4.426371e-01	3.000000e-01	3.393399e-01	6.465882e-01	3.000000e-01	3.061882e-01	6.262876e-01	3.000000e-01	2.085141e-01	4.354292e-01	3.000000e-01	2.395425e-01	2.540947e-01	3.000000e-01	2.272216e-01	1.099555e-01	3.000000e-01	1.445907e-01	2.768996e-01	3.000000e-01	0.000000e+00	5.736073e-01	3.000000e-01	0.000000e+00	9.616002e-01	3.000000e-01	0.000000e+00	1.468963e+00	3.000000e-01	0.000000e+00	2.132422e+00	3.000000e-01	0.000000e+00	3.000000e+00	3.000000e-01	1.000000e+00	3.000000e+00	3.000000e-01	2.000000e+00	3.000000e+00	3.000000e-01	3.000000e+00	2.000000e+00	3.000000e-01	4.000000e+00	1.000000e+00	3.000000e-01	4.000000e+00	1.102274e-11	3.000000e-01	4.000000e+00	-1.000000e+00	3.000000e-01	4.000000e+00	-2.000000e+00	3.000000e-01	4.000000e+00	-3.000000e+00	3.000000e-01	3.000000e+00	-3.000000e+00	3.000000e-01	2.000000e+00	-3.000000e+00	3.000000e-01	1.000000e+00	1.271222e+00	0.000000e+00	2.566248e-01	-5.391868e-01	0.000000e+00	9.438978e-01	6.247506e-01	0.000000e+00	2.225222e+00	8.008167e-01	0.000000e+00	1.251315e+00	-6.072401e-01	0.000000e+00	2.038079e+00	1.665849e+00	0.000000e+00	1.602569e+00	2.414054e-01	0.000000e+00	1.173577e+00	1.249046e+00	0.000000e+00	6.415750e-01	7.599505e-01	0.000000e+00	5.685271e-02	-2.473072e-01	0.000000e+00	5.301399e-01	8.673158e-01	0.000000e+00	8.506383e-01	9.030431e-01	0.000000e+00	1.195101e-01	1.035254e-01	0.000000e+00	7.484482e-01	-1.569686e+00	0.000000e+00	9.714074e-01	1.898901e+00	0.000000e+00	4.691142e-01	4.977182e-01	0.000000e+00	9.099207e-01	1.079183e+00	0.000000e+00	4.780842e-01	8.878346e-01	0.000000e+00	5.280247e-01	1.197541e-01	0.000000e+00	1.795049e+00	-4.559210e-01	0.000000e+00	2.772310e+00	1.276047e+00	0.000000e+00	1.448581e+00	1.268199e+00	0.000000e+00	2.587784e+00	-6.267274e-01	0.000000e+00	1.526354e+00	1.630299e+00	0.000000e+00	8.978170e-01	-2.016499e+00	0.000000e+00	1.844758e+00	2.416396e+00	0.000000e+00	1.558586e+00	1.063617e+00	0.000000e+00	6.539990e-02	-7.594041e-01	0.000000e+00	5.383219e-01	2.077651e+00	0.000000e+00	2.820500e+00	-1.677558e+00	0.000000e+00	2.979755e+00	4.717031e-01	0.000000e+00	1.102187e-01	-1.727168e-01	0.000000e+00	3.395138e-01	7.107487e-01	0.000000e+00	1.096734e-01	2.161787e-01	0.000000e+00	5.495003e-01	3.583179e-01	0.000000e+00	6.511353e-01	8.481110e-01	0.000000e+00	1.341287e-01	6.291306e-01	0.000000e+00	1.069650e+00	1.064455e+00	0.000000e+00	8.546883e-01	-4.903417e-02	0.000000e+00	9.952970e-01	1.113950e+00	0.000000e+00	2.450775e-01	5.452520e-01	0.000000e+00	6.573798e-01	9.036703e-01	0.000000e+00	1.824993e-01	6.396043e-02	0.000000e+00	4.455913e-01	4.616265e-01	0.000000e+00	1.695133e-01	-2.312884e-01	0.000000e+00	7.647298e-01	9.677906e-01	0.000000e+00	9.022173e-02	-1.081420e+00	0.000000e+00	7.399439e-01	1.428961e+00	0.000000e+00	2.159338e-01	2.270112e-01	0.000000e+00	2.991930e+00	8.077019e-01	0.000000e+00	2.233007e-02	-6.058730e-01	0.000000e+00	3.335664e-01	2.428806e+00	0.000000e+00	3.869118e-01	-2.295943e+00	0.000000e+00	6.206482e-01	2.530553e+00	0.000000e+00	2.370350e+00	-2.235080e+00	0.000000e+00	2.517212e+00	5.311309e-01	0.000000e+00	1.768400e+00	-1.498947e-01	0.000000e+00	1.569246e+00	1.434935e+00	0.000000e+00	1.052542e+00	1.346185e-01	0.000000e+00	2.230160e+00	-8.806888e-01	0.000000e+00	1.180160e+00	1.603508e+00	0.000000e+00	5.212997e-01	3.116168e-01	0.000000e+00	8.579194e-01	1.003306e+00	0.000000e+00	2.215906e-01	3.827507e-01	0.000000e+00	1.437815e+00	-3.757795e-02	0.000000e+00	6.432882e-01	8.426983e-01	0.000000e+00	9.163897e-02	8.804818e-01	0.000000e+00	3.703816e-01	9.313273e-01	0.000000e+00	1.596475e+00	-1.307212e+00	0.000000e+00	1.591280e+00	1.973190e+00	0.000000e+00	1.026006e+00	8.407422e-01	0.000000e+00	3.189410e+00	7.183966e-01	0.000000e+00	7.446159e-01	1.008882e+00	0.000000e+00	5.222940e-01	-1.570828e+00	0.000000e+00	4.600372e-01	1.662740e+00	0.000000e+00	1.528233e-01	1.516165e+00	0.000000e+00	3.188335e+00	-1.086891e+00	0.000000e+00	3.307950e+00	-2.103753e+00	0.000000e+00	1.195912e+00	2.373253e+00	0.000000e+00	8.259714e-01	1.093629e+00	0.000000e+00	2.091724e+00	-1.162528e+00	0.000000e+00	3.489970e-01	1.324755e+00	0.000000e+00	6.754727e-02	2.805925e-01	0.000000e+00	7.767273e-02	4.459879e-01	0.000000e+00	4.744632e-02	6.337775e-01	0.000000e+00	4.548624e-02	-1.225324e-01	0.000000e+00	1.716769e-01	-2.957657e-01	0.000000e+00	1.854449e-01	-3.688962e-01	0.000000e+00	3.324895e-01	7.870545e-01	0.000000e+00	5.042199e-01	9.264602e-01	0.000000e+00	3.702668e-01	-1.505337e+00	0.000000e+00	2.228032e+00	2.087605e+00	0.000000e+00	1.929154e+00	1.234194e+00	0.000000e+00	1.108320e+00	7.547708e-01	0.000000e+00	1.423527e-01	4.845090e-01	0.000000e+00	5.250695e-01	-2.340041e+00	0.000000e+00	3.386494e+00	2.479400e+00	0.000000e+00	3.328567e+00	-3.306758e-01	0.000000e+00	1.253549e+00	1.398747e+00	0.000000e+00	5.808897e-01	1.721436e+00	0.000000e+00	2.438431e+00	-1.078017e+00	0.000000e+00	2.664032e+00	-4.457247e-01	0.000000e+00	3.426068e+00	8.235133e-01	0.000000e+00	2.601501e+00	3.151282e-01	0.000000e+00	1.496703e-01	-1.159206e-02	0.000000e+00	3.055335e-01	1.033377e+00	0.000000e+00	1.230999e+00	1.271194e+00	3.000000e-01	2.565948e-01	-5.391190e-01	3.000000e-01	9.439088e-01	6.247180e-01	3.000000e-01	2.225169e+00	8.008526e-01	3.000000e-01	1.251320e+00	-6.068766e-01	3.000000e-01	2.038039e+00	1.665751e+00	3.000000e-01	1.602486e+00	2.412741e-01	3.000000e-01	1.173630e+00	1.249059e+00	3.000000e-01	6.416345e-01	7.599043e-01	3.000000e-01	5.686086e-02	-2.473032e-01	3.000000e-01	5.301462e-01	8.672838e-01	3.000000e-01	8.506396e-01	9.030129e-01	3.000000e-01	1.195594e-01	1.035425e-01	3.000000e-01	7.485014e-01	-1.569614e+00	3.000000e-01	9.714319e-01	1.898887e+00	3.000000e-01	4.691431e-01	4.976530e-01	3.000000e-01	9.099105e-01	1.079170e+00	3.000000e-01	4.781598e-01	8.877058e-01	3.000000e-01	5.280754e-01	1.197870e-01	3.000000e-01	1.795058e+00	-4.555991e-01	3.000000e-01	2.772306e+00	1.276016e+00	3.000000e-01	1.448561e+00	1.268010e+00	3.000000e-01	2.587729e+00	-6.265399e-01	3.000000e-01	1.526370e+00	1.630306e+00	3.000000e-01	8.978045e-01	-2.016279e+00	3.000000e-01	1.844818e+00	2.416349e+00	3.000000e-01	1.558570e+00	1.063585e+00	3.000000e-01	6.539307e-02	-7.593654e-01	3.000000e-01	5.383217e-01	2.077408e+00	3.000000e-01	2.820329e+00	-1.676878e+00	3.000000e-01	2.979940e+00	4.716703e-01	3.000000e-01	1.102194e-01	-1.727218e-01	3.000000e-01	3.395208e-01	7.107403e-01	3.000000e-01	1.096747e-01	2.161712e-01	3.000000e-01	5.495082e-01	3.584521e-01	3.000000e-01	6.511285e-01	8.481137e-01	3.000000e-01	1.341444e-01	6.290419e-01	3.000000e-01	1.069683e+00	1.064448e+00	3.000000e-01	8.547337e-01	-4.899291e-02	3.000000e-01	9.952794e-01	1.113940e+00	3.000000e-01	2.450359e-01	5.451961e-01	3.000000e-01	6.574261e-01	9.036956e-01	3.000000e-01	1.825100e-01	6.395704e-02	3.000000e-01	4.455886e-01	4.616078e-01	3.000000e-01	1.695201e-01	-2.312456e-01	3.000000e-01	7.647279e-01	9.677487e-01	3.000000e-01	9.021168e-02	-1.081356e+00	3.000000e-01	7.399572e-01	1.428968e+00	3.000000e-01	2.159414e-01	2.270240e-01	3.000000e-01	2.991804e+00	8.077112e-01	3.000000e-01	2.234159e-02	-6.058706e-01	3.000000e-01	3.335561e-01	2.428852e+00	3.000000e-01	3.870040e-01	-2.296306e+00	3.000000e-01	6.204699e-01	2.530338e+00	3.000000e-01	2.370224e+00	-2.234359e+00	3.000000e-01	2.517494e+00	5.311700e-01	3.000000e-01	1.768288e+00	-1.496798e-01	3.000000e-01	1.569196e+00	1.434901e+00	3.000000e-01	1.052494e+00	1.348911e-01	3.000000e-01	2.230085e+00	-8.805098e-01	3.000000e-01	1.180213e+00	1.603491e+00	3.000000e-01	5.212614e-01	3.116542e-01	3.000000e-01	8.579081e-01	1.003352e+00	3.000000e-01	2.216001e-01	3.829518e-01	3.000000e-01	1.437685e+00	-3.759324e-02	3.000000e-01	6.432793e-01	8.426539e-01	3.000000e-01	9.163273e-02	8.804838e-01	3.000000e-01	3.702756e-01	9.314409e-01	3.000000e-01	1.596352e+00	-1.306809e+00	3.000000e-01	1.591256e+00	1.973114e+00	3.000000e-01	1.025952e+00	8.404259e-01	3.000000e-01	3.189462e+00	7.183538e-01	3.000000e-01	7.446054e-01	1.008873e+00	3.000000e-01	5.222236e-01	-1.570701e+00	3.000000e-01	4.601283e-01	1.662722e+00	3.000000e-01	1.528304e-01	1.515814e+00	3.000000e-01	3.188207e+00	-1.086391e+00	3.000000e-01	3.308099e+00	-2.104020e+00	3.000000e-01	1.195861e+00	2.373256e+00	3.000000e-01	8.261209e-01	1.093541e+00	3.000000e-01	2.091724e+00	-1.162460e+00	3.000000e-01	3.490272e-01	1.324761e+00	3.000000e-01	6.755425e-02	2.805987e-01	3.000000e-01	7.766822e-02	4.459784e-01	3.000000e-01	4.743875e-02	6.337580e-01	3.000000e-01	4.548562e-02	-1.225335e-01	3.000000e-01	1.716781e-01	-2.957636e-01	3.000000e-01	1.854547e-01	-3.688822e-01	3.000000e-01	3.324997e-01	7.871827e-01	3.000000e-01	5.040259e-01	9.264702e-01	3.000000e-01	3.701903e-01	-1.504789e+00	3.000000e-01	2.228124e+00	2.087434e+00	3.000000e-01	1.929068e+00	1.234196e+00	3.000000e-01	1.108309e+00	7.547748e-01	3.000000e-01	1.423535e-01	4.845695e-01	3.000000e-01	5.250377e-01	-2.339766e+00	3.000000e-01	3.386571e+00	2.479159e+00	3.000000e-01	3.328451e+00	-3.305528e-01	3.000000e-01	1.253513e+00	1.398719e+00	3.000000e-01	5.809084e-01	1.721200e+00	3.000000e-01	2.438305e+00	-1.077340e+00	3.000000e-01	2.664096e+00	-4.455119e-01	3.000000e-01	3.426120e+00	8.233883e-01	3.000000e-01	2.601478e+00	3.151330e-01	3.000000e-01	1.496650e-01	-1.161076e-02	3.000000e-01	3.055303e-01	1.033415e+00	3.000000e-01	1.230945e+00	
CELLS 247	1729
6	109	167	106	215	273	212	6	108	107	168	214	213	274	6	82	100	119	188	206	225	6	83	118	101	189	224	207	6	106	167	25	212	273	54	6	107	24	168	213	53	274	6	77	110	84	183	216	190	6	77	84	111	183	190	217	6	78	92	132	184	198	238	6	82	106	117	188	212	223	6	83	116	107	189	222	213	6	80	110	137	186	216	243	6	78	142	96	184	248	202	6	79	97	143	185	203	249	6	82	123	100	188	229	206	6	83	101	124	189	207	230	6	25	26	106	54	55	212	6	23	24	107	52	53	213	6	4	167	115	11	273	221	6	3	114	168	10	220	274	6	35	99	152	64	205	258	6	43	151	98	72	257	204	6	79	153	94	185	259	200	6	76	122	132	182	228	238	6	86	112	118	192	218	224	6	85	119	113	191	225	219	6	74	119	100	180	225	206	6	75	101	118	181	207	224	6	78	132	93	184	238	199	6	86	107	108	192	213	214	6	85	109	106	191	215	212	6	80	135	89	186	241	195	6	81	90	136	187	196	242	6	82	139	106	188	245	212	6	83	107	138	189	213	244	6	80	137	130	186	243	236	6	82	117	104	188	223	210	6	83	105	116	189	211	222	6	75	112	171	181	218	277	6	74	172	113	180	278	219	6	79	95	153	185	201	259	6	75	120	101	181	226	207	6	74	100	121	180	206	227	6	88	148	125	194	254	231	6	87	126	147	193	232	253	6	33	125	148	62	231	254	6	16	147	126	45	253	232	6	78	164	142	184	270	248	6	79	143	165	185	249	271	6	4	115	163	11	221	269	6	3	162	114	10	268	220	6	34	35	152	63	64	258	6	43	44	151	72	73	257	6	85	113	136	191	219	242	6	86	135	112	192	241	218	6	31	100	123	60	206	229	6	18	124	101	47	230	207	6	23	107	116	52	213	222	6	26	117	106	55	223	212	6	80	112	135	186	218	241	6	81	136	113	187	242	219	6	84	110	145	190	216	251	6	84	146	111	190	252	217	6	75	171	133	181	277	239	6	74	134	172	180	240	278	6	93	132	122	199	238	228	6	100	155	121	206	261	227	6	101	120	154	207	226	260	6	18	19	124	47	48	230	6	30	31	123	59	60	229	6	114	162	145	220	268	251	6	115	146	163	221	252	269	6	32	33	148	61	62	254	6	16	17	147	45	46	253	6	109	136	115	215	242	221	6	108	114	135	214	220	241	6	6	125	33	13	231	62	6	0	16	126	8	45	232	6	37	149	102	66	255	208	6	41	103	150	70	209	256	6	78	93	174	184	199	280	6	79	173	95	185	279	201	6	89	145	110	195	251	216	6	90	111	146	196	217	252	6	85	136	109	191	242	215	6	86	108	135	192	214	241	6	31	32	155	60	61	261	6	17	18	154	46	47	260	6	109	115	167	215	221	273	6	108	168	114	214	274	220	6	5	156	28	12	262	57	6	2	21	159	9	50	265	6	76	176	122	182	282	228	6	5	29	156	12	58	262	6	2	159	20	9	265	49	6	19	20	160	48	49	266	6	29	30	157	58	59	263	6	22	23	116	51	52	222	6	26	27	117	55	56	223	6	88	143	134	194	249	240	6	87	133	142	193	239	248	6	0	126	44	8	232	73	6	6	34	125	13	63	231	6	75	118	112	181	224	218	6	74	113	119	180	219	225	6	80	89	110	186	195	216	6	81	111	90	187	217	196	6	86	138	107	192	244	213	6	85	106	139	191	212	245	6	31	155	100	60	261	206	6	18	101	154	47	207	260	6	37	102	170	66	208	276	6	41	169	103	70	275	209	6	121	155	148	227	261	254	6	120	147	154	226	253	260	6	86	118	138	192	224	244	6	85	139	119	191	245	225	6	91	163	146	197	269	252	6	91	145	162	197	251	268	6	78	130	92	184	236	198	6	79	94	131	185	200	237	6	88	134	121	194	240	227	6	87	120	133	193	226	239	6	92	130	137	198	236	243	6	37	38	149	66	67	255	6	40	41	150	69	70	256	6	43	98	128	72	204	234	6	35	127	99	64	233	205	6	78	96	130	184	202	236	6	79	131	97	185	237	203	6	102	127	170	208	233	276	6	103	169	128	209	275	234	6	98	142	164	204	248	270	6	99	165	143	205	271	249	6	35	36	127	64	65	233	6	42	43	128	71	72	234	6	82	104	158	188	210	264	6	83	161	105	189	267	211	6	30	123	158	59	229	264	6	19	161	124	48	267	230	6	42	128	169	71	234	275	6	36	170	127	65	276	233	6	3	4	140	10	11	246	6	39	40	175	68	69	281	6	22	116	178	51	222	284	6	27	177	117	56	283	223	6	88	152	143	194	258	249	6	87	142	151	193	248	257	6	75	133	120	181	239	226	6	74	121	134	180	227	240	6	30	158	157	59	264	263	6	19	160	161	48	266	267	6	38	39	144	67	68	250	6	77	137	110	183	243	216	6	76	141	153	182	247	259	6	89	114	145	195	220	251	6	90	146	115	196	252	221	6	82	158	123	188	264	229	6	83	124	161	189	230	267	6	7	170	36	14	276	65	6	1	42	169	15	71	275	6	1	169	41	15	275	70	6	7	37	170	14	66	276	6	77	141	129	183	247	235	6	84	145	91	190	251	197	6	84	91	146	190	197	252	6	104	117	177	210	223	283	6	105	178	116	211	284	222	6	83	138	118	189	244	224	6	82	119	139	188	225	245	6	77	129	137	183	235	243	6	94	153	141	200	259	247	6	39	175	122	68	281	228	6	76	129	141	182	235	247	6	77	111	179	183	217	285	6	95	149	144	201	255	250	6	27	28	177	56	57	283	6	21	22	178	50	51	284	6	96	133	171	202	239	277	6	97	172	134	203	278	240	6	102	165	127	208	271	233	6	103	128	164	209	234	270	6	102	173	165	208	279	271	6	103	164	174	209	270	280	6	88	125	152	194	231	258	6	87	151	126	193	257	232	6	93	122	175	199	228	281	6	91	162	140	197	268	246	6	91	140	163	197	246	269	6	17	154	147	46	260	253	6	32	148	155	61	254	261	6	79	165	173	185	271	279	6	78	174	164	184	280	270	6	80	171	112	186	277	218	6	81	113	172	187	219	278	6	96	142	133	202	248	239	6	97	134	143	203	240	249	6	99	127	165	205	233	271	6	98	164	128	204	270	234	6	95	144	176	201	250	282	6	80	130	171	186	236	277	6	81	172	131	187	278	237	6	81	131	166	187	237	272	6	39	122	144	68	228	250	6	81	166	111	187	272	217	6	93	150	174	199	256	280	6	95	173	149	201	279	255	6	89	135	114	195	241	220	6	90	115	136	196	221	242	6	3	140	162	10	246	268	6	4	163	140	11	269	246	6	92	129	132	198	235	238	6	98	151	142	204	257	248	6	99	143	152	205	249	258	6	76	132	129	182	238	235	6	34	152	125	63	258	231	6	44	126	151	73	232	257	6	122	176	144	228	282	250	6	87	147	120	193	253	226	6	88	121	148	194	227	254	6	77	179	141	183	285	247	6	103	174	150	209	280	256	6	102	149	173	208	255	279	6	38	144	149	67	250	255	6	92	137	129	198	243	235	6	93	175	150	199	281	256	6	104	157	158	210	263	264	6	105	161	160	211	267	266	6	76	153	176	182	259	282	6	29	157	156	58	263	262	6	20	159	160	49	265	266	6	94	179	166	200	285	272	6	94	141	179	200	247	285	6	28	156	177	57	262	283	6	21	178	159	50	284	265	6	94	166	131	200	272	237	6	104	156	157	210	262	263	6	105	160	159	211	266	265	6	111	166	179	217	272	285	6	96	171	130	202	277	236	6	97	131	172	203	237	278	6	95	176	153	201	282	259	6	104	177	156	210	283	262	6	105	159	178	211	265	284	6	40	150	175	69	256	281	6	3	168	24	10	274	53	6	4	25	167	11	54	273	
CELL_TYPES 247
13	13	13	13	13	13	13	13	13	13	13	13	13	13	13	13	13	13	13	13	13	13	13	13	13	13	13	13	13	13	13	13	13	13	13	13	13	13	13	13	13	13	13	13	13	13	13	13	13	13	13	13	13	13	13	13	13	13	13	13	13	13	13	13	13	13	13	13	13	13	13	13	13	13	13	13	13	13	13	13	13	13	13	13	13	13	13	13	13	13	13	13	13	13	13	13	13	13	13	13	13	13	13	13	13	13	13	13	13	13	13	13	13	13	13	13	13	13	13	13	13	13	13	13	13	13	13	13	13	13	13	13	13	13	13	13	13	13	13	13	13	13	13	13	13	13	13	13	13	13	13	13	13	13	13	13	13	13	13	13	13	13	13	13	13	13	13	13	13	13	13	13	13	13	13	13	13	13	13	13	13	13	13	13	13	13	13	13	13	13	13	13	13	13	13	13	13	13	13	13	13	13	13	13	13	13	13	13	13	13	13	13	13	13	13	13	13	13	13	13	13	13	13	13	13	13	13	13	13	13	13	13	13	13	13	13	13	13	13	13	13	13	13	13	13	13	13	
POINT_DATA 286

SCALARS Density float 1
LOOKUP_TABLE default
1.223473e+00	1.223442e+00	1.223900e+00	1.221534e+00	1.220588e+00	1.225353e+00	1.224501e+00	1.223014e+00	1.223473e+00	1.223900e+00	1.221534e+00	1.220588e+00	1.225353e+00	1.224501e+00	1.223014e+00	1.223442e+00	1.223488e+00	1.223512e+00	1.223212e+00	1.223587e+00	1.223670e+00	1.225163e+00	1.222928e+00	1.221658e+00	1.223714e+00	1.223848e+00	1.224568e+00	1.225058e+00	1.225270e+00	1.225263e+00	1.224555e+00	1.224703e+00	1.224760e+00	1.224000e+00	1.223971e+00	1.223555e+00	1.222900e+00	1.223171e+00	1.223144e+00	1.223344e+00	1.223324e+00	1.223431e+00	1.223534e+00	1.223444e+00	1.223448e+00	1.223488e+00	1.223512e+00	1.223212e+00	1.223587e+00	1.223670e+00	1.225163e+00	1.222928e+00	1.221658e+00	1.223714e+00	1.223849e+00	1.224568e+00	1.225058e+00	1.225270e+00	1.225263e+00	1.224555e+00	1.224703e+00	1.224760e+00	1.224000e+00	1.223971e+00	1.223555e+00	1.222900e+00	1.223171e+00	1.223144e+00	1.223344e+00	1.223324e+00	1.223431e+00	1.223534e+00	1.223444e+00	1.223448e+00	1.224436e+00	1.223283e+00	1.223093e+00	1.222854e+00	1.223312e+00	1.223387e+00	1.223251e+00	1.223499e+00	1.224045e+00	1.223452e+00	1.223782e+00	1.223725e+00	1.223402e+00	1.223489e+00	1.223519e+00	1.222758e+00	1.223384e+00	1.221698e+00	1.223347e+00	1.223385e+00	1.223231e+00	1.223113e+00	1.223314e+00	1.223641e+00	1.223446e+00	1.223201e+00	1.224883e+00	1.223675e+00	1.222882e+00	1.223371e+00	1.224823e+00	1.223391e+00	1.223484e+00	1.223015e+00	1.222710e+00	1.222591e+00	1.223579e+00	1.222956e+00	1.223214e+00	1.224491e+00	1.223882e+00	1.224179e+00	1.224824e+00	1.224786e+00	1.223576e+00	1.224263e+00	1.223381e+00	1.224277e+00	1.223179e+00	1.224032e+00	1.224341e+00	1.223296e+00	1.223609e+00	1.223540e+00	1.223471e+00	1.223369e+00	1.223237e+00	1.223091e+00	1.223222e+00	1.223390e+00	1.223899e+00	1.223152e+00	1.224133e+00	1.223084e+00	1.222307e+00	1.223673e+00	1.227727e+00	1.223164e+00	1.223493e+00	1.223031e+00	1.223026e+00	1.222707e+00	1.223685e+00	1.223449e+00	1.224335e+00	1.223119e+00	1.223313e+00	1.223403e+00	1.224246e+00	1.223331e+00	1.223647e+00	1.224888e+00	1.225269e+00	1.225216e+00	1.224594e+00	1.223963e+00	1.224659e+00	1.223913e+00	1.223507e+00	1.223794e+00	1.223396e+00	1.223373e+00	1.223631e+00	1.222360e+00	1.224126e+00	1.223388e+00	1.222834e+00	1.223486e+00	1.223141e+00	1.222988e+00	1.223414e+00	1.223208e+00	1.223234e+00	1.225238e+00	1.224077e+00	1.223086e+00	1.224436e+00	1.223283e+00	1.223093e+00	1.222854e+00	1.223312e+00	1.223387e+00	1.223251e+00	1.223499e+00	1.224045e+00	1.223452e+00	1.223782e+00	1.223725e+00	1.223402e+00	1.223489e+00	1.223519e+00	1.222758e+00	1.223384e+00	1.221698e+00	1.223347e+00	1.223385e+00	1.223231e+00	1.223113e+00	1.223314e+00	1.223641e+00	1.223446e+00	1.223201e+00	1.224883e+00	1.223675e+00	1.222882e+00	1.223371e+00	1.224823e+00	1.223391e+00	1.223484e+00	1.223015e+00	1.222710e+00	1.222591e+00	1.223578e+00	1.222956e+00	1.223214e+00	1.224491e+00	1.223882e+00	1.224180e+00	1.224824e+00	1.224786e+00	1.223576e+00	1.224263e+00	1.223381e+00	1.224277e+00	1.223179e+00	1.224032e+00	1.224341e+00	1.223296e+00	1.223609e+00	1.223540e+00	1.223471e+00	1.223369e+00	1.223237e+00	1.223091e+00	1.223222e+00	1.223390e+00	1.223899e+00	1.223152e+00	1.224133e+00	1.223084e+00	1.222307e+00	1.223673e+00	1.227728e+00	1.223164e+00	1.223493e+00	1.223031e+00	1.223026e+00	1.222707e+00	1.223684e+00	1.223449e+00	1.224335e+00	1.223119e+00	1.223313e+00	1.223403e+00	1.224246e+00	1.223331e+00	1.223647e+00	1.224888e+00	1.225269e+00	1.225216e+00	1.224594e+00	1.223963e+00	1.224659e+00	1.223913e+00	1.223508e+00	1.223794e+00	1.223396e+00	1.223373e+00	1.223631e+00	1.222360e+00	1.224126e+00	1.223388e+00	1.222835e+00	1.223486e+00	1.223141e+00	1.222988e+00	1.223414e+00	1.223208e+00	1.223234e+00	1.225238e+00	1.224077e+00	1.223086e+00	
SCALARS X-Momentum float 1
LOOKUP_TABLE default
1.049327e+01	1.279339e+01	1.790692e+00	5.676279e+00	2.707888e+00	-1.434238e-01	5.562532e+00	1.600115e+01	1.049327e+01	1.790700e+00	5.675989e+00	2.707869e+00	-1.434267e-01	5.562521e+00	1.600116e+01	1.279339e+01	1.001332e+01	9.172441e+00	7.817267e+00	5.710193e+00	3.519476e+00	2.857879e+00	7.068554e+00	8.649029e+00	7.945707e+00	1.458113e+00	9.100970e-01	5.552430e-01	1.442393e-01	-4.214237e-01	-9.762337e-01	-7.844924e-01	1.078823e+00	3.298928e+00	8.700048e+00	1.229250e+01	1.495694e+01	1.549142e+01	1.481639e+01	1.396445e+01	1.334119e+01	1.294263e+01	1.245083e+01	1.177096e+01	1.101981e+01	1.001332e+01	9.172439e+00	7.817270e+00	5.710200e+00	3.519486e+00	2.857881e+00	7.068510e+00	8.648968e+00	7.945571e+00	1.458189e+00	9.101271e-01	5.552509e-01	1.442421e-01	-4.214265e-01	-9.762337e-01	-7.845188e-01	1.078801e+00	3.298907e+00	8.700043e+00	1.229250e+01	1.495696e+01	1.549143e+01	1.481638e+01	1.396444e+01	1.334118e+01	1.294263e+01	1.245084e+01	1.177097e+01	1.101982e+01	3.604843e+00	1.084527e+01	1.352686e+01	1.210550e+01	1.263935e+01	1.239195e+01	1.210989e+01	7.908807e+00	-4.663315e-01	8.631374e+00	9.843866e+00	5.368860e-01	1.086122e+01	1.079837e+01	6.069174e+00	1.127770e+01	6.500714e+00	7.424686e+00	1.302694e+01	1.318284e+01	1.236001e+01	1.414380e+01	1.211505e+01	9.585304e+00	1.179694e+01	1.141324e+01	2.891015e-01	9.113330e+00	1.460673e+01	1.267693e+01	-1.264503e-01	5.881130e+00	4.605242e-01	9.192475e+00	9.858697e+00	9.053829e-01	1.155576e+01	9.820271e+00	1.158843e+01	3.958746e+00	9.243436e+00	3.145266e+00	7.953486e+00	4.063158e-01	1.062197e+01	4.978055e-01	1.015756e+01	3.408892e+00	1.372394e+01	-1.230354e+00	7.367506e+00	5.611602e+00	1.054365e+01	1.386526e+01	1.230657e+01	1.318799e+01	1.258923e+01	1.054106e+01	1.332432e+01	1.129178e+01	6.768290e+00	1.119462e+01	3.530091e+00	1.274200e+01	1.042004e+01	-8.148643e-01	5.051765e+00	1.292807e+01	1.171378e+01	9.707392e+00	1.434355e+01	9.764268e+00	6.962865e+00	9.952737e+00	3.188317e+00	1.479460e+01	1.305276e+01	1.120956e+01	8.846827e+00	1.344279e+01	9.163968e+00	9.072526e-01	-1.049180e-01	-4.615071e-01	-7.983633e-01	3.358808e+00	4.833543e+00	6.537465e+00	6.605484e+00	5.344286e+00	1.228901e+01	1.281062e+01	1.094964e+01	1.253661e+00	8.678318e+00	1.269890e+01	1.537499e+01	1.191761e+01	7.244418e+00	1.408766e+01	1.273136e+01	1.343661e+01	1.397338e+01	2.713379e-01	5.059608e+00	1.175094e+01	3.604791e+00	1.084527e+01	1.352683e+01	1.210548e+01	1.263935e+01	1.239196e+01	1.210987e+01	7.908877e+00	-4.663028e-01	8.631361e+00	9.843957e+00	5.369734e-01	1.086113e+01	1.079837e+01	6.069171e+00	1.127762e+01	6.500974e+00	7.424807e+00	1.302693e+01	1.318283e+01	1.235999e+01	1.414379e+01	1.211505e+01	9.585299e+00	1.179695e+01	1.141325e+01	2.890471e-01	9.113327e+00	1.460675e+01	1.267693e+01	-1.264221e-01	5.881127e+00	4.606132e-01	9.192384e+00	9.858504e+00	9.056748e-01	1.155577e+01	9.820313e+00	1.158840e+01	3.958742e+00	9.243144e+00	3.145531e+00	7.953447e+00	4.063489e-01	1.062196e+01	4.977375e-01	1.015756e+01	3.408865e+00	1.372392e+01	-1.230361e+00	7.367510e+00	5.611590e+00	1.054365e+01	1.386527e+01	1.230658e+01	1.318797e+01	1.258922e+01	1.054105e+01	1.332430e+01	1.129178e+01	6.768265e+00	1.119450e+01	3.530389e+00	1.274198e+01	1.042002e+01	-8.148427e-01	5.051790e+00	1.292804e+01	1.171379e+01	9.707408e+00	1.434354e+01	9.764253e+00	6.963044e+00	9.952736e+00	3.188297e+00	1.479461e+01	1.305275e+01	1.120956e+01	8.846824e+00	1.344276e+01	9.163968e+00	9.072260e-01	-1.049181e-01	-4.614972e-01	-7.983309e-01	3.358817e+00	4.833554e+00	6.537473e+00	6.605049e+00	5.344755e+00	1.228901e+01	1.281065e+01	1.094965e+01	1.253813e+00	8.678157e+00	1.269890e+01	1.537500e+01	1.191760e+01	7.244400e+00	1.408768e+01	1.273135e+01	1.343659e+01	1.397335e+01	2.713435e-01	5.059587e+00	1.175091e+01	
SCALARS Y-Momentum float 1
LOOKUP_TABLE default
1.705399e-06	-1.746204e-06	9.685233e-06	1.011493e-04	1.207548e-05	5.548597e-06	1.701173e-05	-9.285102e-06	1.933747e-06	1.002328e-05	1.053733e-04	1.720413e-05	5.910631e-06	1.694911e-05	-8.781622e-06	-1.573093e-06	5.790738e-06	-7.890426e-06	-6.223764e-06	-5.445649e-06	7.421703e-08	1.559943e-05	3.267466e-06	-3.296413e-05	-5.529459e-05	-6.060746e-05	-3.047197e-05	-1.280622e-05	-3.176883e-06	1.534570e-05	4.028637e-05	2.729236e-05	4.925026e-06	-6.306114e-07	3.778820e-05	-1.819943e-06	-5.532099e-06	2.212180e-06	3.407756e-06	9.519566e-06	1.807074e-06	-2.627782e-07	-1.130281e-05	-7.874659e-06	7.288294e-07	6.110368e-06	-7.479747e-06	-5.659955e-06	-4.980001e-06	4.244849e-07	1.612983e-05	4.213914e-06	-3.135760e-05	-5.274194e-05	-5.766556e-05	-2.883126e-05	-1.194540e-05	-2.680779e-06	1.577119e-05	4.089563e-05	2.783946e-05	4.852456e-06	-8.089580e-07	3.802189e-05	-1.085224e-06	-4.927677e-06	3.124090e-06	4.479333e-06	1.062358e-05	2.413831e-06	1.129583e-07	-1.108704e-05	-7.514950e-06	1.032347e-06	-1.704317e-05	-1.019401e-06	-3.323275e-06	1.768855e-06	1.131117e-06	3.069505e-06	8.374206e-06	1.286748e-05	5.450632e-05	-1.220188e-05	2.457331e-05	3.387100e-05	-2.556305e-07	-8.926053e-06	-4.611312e-05	1.379992e-05	-1.737623e-04	4.495017e-05	3.591862e-06	1.193610e-05	-1.395887e-05	8.652623e-06	-7.926940e-06	9.248160e-06	-1.215477e-05	-2.137590e-05	1.144582e-05	-5.822439e-06	-1.220043e-06	1.129920e-07	1.608161e-05	5.903468e-08	-3.588266e-06	4.028599e-06	-3.861612e-05	-8.048434e-05	2.900362e-05	-4.573274e-05	-9.001323e-06	1.366269e-05	4.715927e-05	-1.868227e-04	-8.918072e-06	-2.944861e-06	-1.280090e-06	8.038201e-05	-1.762527e-06	-3.091283e-05	1.163564e-05	5.354501e-05	-7.668534e-06	1.638656e-05	3.032986e-06	-1.216380e-05	-9.514557e-06	-4.496647e-06	2.608931e-06	6.409538e-06	4.100160e-06	-1.232723e-05	-1.793609e-06	-4.239334e-05	-2.072437e-05	5.546985e-06	-6.008610e-06	9.343338e-05	3.893544e-04	-1.524466e-05	-1.267674e-05	-2.863489e-05	7.711563e-06	7.137962e-05	-1.592075e-04	3.491785e-06	-9.357421e-06	4.176653e-06	3.528349e-06	-6.318345e-06	-6.257126e-06	-6.752384e-06	-5.283455e-06	4.837517e-06	1.006753e-05	2.259386e-05	5.033011e-05	6.335238e-06	-1.329959e-05	-1.626646e-05	2.153718e-04	4.489355e-06	-2.987433e-06	-8.673396e-06	1.183523e-05	-2.267964e-05	-7.786718e-05	-3.681254e-06	-3.949288e-06	4.464482e-06	1.773727e-05	5.030083e-06	7.799389e-06	8.242860e-06	4.213385e-06	9.686569e-07	6.169836e-06	3.121344e-06	-1.332298e-05	8.650070e-07	9.787609e-07	9.056055e-06	3.430943e-06	8.720749e-06	1.267249e-05	2.151417e-05	5.641637e-05	-1.092843e-05	3.209040e-05	3.892877e-05	2.326615e-06	-7.951229e-06	-4.510887e-05	1.866359e-05	-1.653887e-04	5.149656e-05	7.225525e-06	1.358921e-05	-6.191095e-06	1.211908e-05	-5.729298e-06	1.483369e-05	-1.143927e-05	-1.975998e-05	1.306129e-05	-4.697342e-06	3.862008e-07	7.275548e-07	1.697717e-05	7.955591e-07	-5.100216e-07	6.176911e-06	-3.552828e-05	-7.506964e-05	3.505914e-05	-3.679575e-05	-6.118011e-06	1.987537e-05	5.150018e-05	-1.800011e-04	-7.726028e-06	-1.605259e-06	6.218149e-07	8.409361e-05	-6.472386e-07	-2.969222e-05	1.388279e-05	5.451110e-05	-6.949595e-06	1.639594e-05	3.503780e-06	-1.091195e-05	-9.028724e-06	6.033201e-07	5.954335e-06	1.426000e-05	7.243509e-06	-1.062398e-05	1.678842e-06	-3.865395e-05	-1.345280e-05	1.059772e-05	-4.210956e-06	9.677902e-05	3.947228e-04	-8.523116e-06	-1.127148e-05	-2.546507e-05	9.657753e-06	7.729461e-05	-1.513071e-04	4.094978e-06	-9.457132e-06	5.954040e-06	4.320396e-06	-5.637957e-06	-5.381625e-06	-1.324049e-06	-4.619776e-06	5.135384e-06	1.057738e-05	2.317210e-05	5.121851e-05	6.800483e-06	-1.284068e-05	-1.561994e-05	2.204832e-04	1.095257e-05	-1.945176e-06	-5.879458e-06	2.054917e-05	-1.818145e-05	-7.477760e-05	-3.390796e-06	-3.168208e-06	7.169009e-06	2.412209e-05	7.972579e-06	8.932584e-06	9.308619e-06	7.474135e-06	1.682879e-06	6.880180e-06	1.128646e-05	
SCALARS Z-Momentum float 1
LOOKUP_TABLE default