/*--------------------------------*- C++ -*----------------------------------*\
| =========                 |                                                 |
| \\      /  F ield         | OpenFOAM: The Open Source CFD Toolbox           |
|  \\    /   O peration     | Version:  4.1                                   |
|   \\  /    A nd           | Web:      www.OpenFOAM.org                      |
|    \\/     M anipulation  |                                                 |
\*---------------------------------------------------------------------------*/
FoamFile
{
    version     2.0;
    format      ascii;
    class       surfaceScalarField;
    location    "1";
    object      phi;
}
// * * * * * * * * * * * * * * * * * * * * * * * * * * * * * * * * * * * * * //

dimensions      [1 0 -1 0 0 0 0];

internalField   nonuniform List<scalar> 
23692
(
9.30943e-05
-1.47408e-08
9.31179e-05
-2.34966e-08
9.31437e-05
-2.5653e-08
9.31643e-05
-2.03974e-08
9.3173e-05
-8.4537e-09
9.31651e-05
8.22519e-09
9.31388e-05
2.67255e-08
9.30953e-05
4.39686e-08
9.30383e-05
5.75481e-08
9.29727e-05
6.62233e-08
9.29035e-05
6.99551e-08
9.28347e-05
6.95707e-08
9.27693e-05
6.63097e-08
9.27089e-05
6.14019e-08
9.26541e-05
5.58294e-08
9.26051e-05
5.02314e-08
9.25615e-05
4.49355e-08
9.25229e-05
4.00413e-08
9.24889e-05
3.55142e-08
9.24593e-05
3.12588e-08
9.2434e-05
2.71672e-08
9.24127e-05
2.31537e-08
9.23956e-05
1.91485e-08
9.23827e-05
1.51193e-08
9.2374e-05
1.10416e-08
9.23695e-05
6.91797e-09
9.23694e-05
2.74763e-09
9.23736e-05
-1.45198e-09
9.23821e-05
-5.6697e-09
9.2395e-05
-9.88604e-09
9.24122e-05
-1.40838e-08
9.24336e-05
-1.82426e-08
9.24594e-05
-2.2341e-08
9.24892e-05
-2.63554e-08
9.25231e-05
-3.02637e-08
9.25608e-05
-3.4036e-08
9.26023e-05
-3.76425e-08
9.26473e-05
-4.10508e-08
9.26956e-05
-4.42245e-08
9.27469e-05
-4.71262e-08
9.28009e-05
-4.97099e-08
9.28572e-05
-5.19312e-08
9.29153e-05
-5.37394e-08
9.29749e-05
-5.50798e-08
9.30354e-05
-5.58945e-08
9.30962e-05
-5.61188e-08
9.31567e-05
-5.56838e-08
9.3216e-05
-5.45157e-08
9.32734e-05
-5.25305e-08
9.33279e-05
-4.96394e-08
9.33786e-05
-4.57388e-08
9.34243e-05
-4.07171e-08
9.34638e-05
-3.44475e-08
9.34957e-05
-2.6785e-08
9.35183e-05
-1.75607e-08
9.353e-05
-6.58322e-09
9.35288e-05
6.37793e-09
9.35123e-05
2.15908e-08
9.34781e-05
3.9376e-08
9.34232e-05
6.01196e-08
9.3344e-05
8.42931e-08
9.32367e-05
1.12476e-07
9.30965e-05
1.45388e-07
9.29177e-05
1.83937e-07
9.26936e-05
2.29275e-07
9.24158e-05
2.82889e-07
9.20742e-05
3.46725e-07
9.16559e-05
4.23367e-07
9.11446e-05
5.16305e-07
9.05193e-05
6.30342e-07
8.97521e-05
7.72209e-07
8.88055e-05
9.51541e-07
8.7628e-05
1.18242e-06
8.6147e-05
1.48587e-06
8.4258e-05
1.89392e-06
8.18064e-05
2.45633e-06
7.85601e-05
3.25115e-06
7.4162e-05
4.40279e-06
6.80429e-05
6.1238e-06
5.92302e-05
8.81725e-06
1.35604e-05
4.56744e-05
9.9615e-05
-3.03466e-08
9.96403e-05
-4.87024e-08
9.9668e-05
-5.32825e-08
9.96903e-05
-4.24889e-08
9.97e-05
-1.78457e-08
9.9692e-05
1.66191e-08
9.96642e-05
5.49019e-08
9.96181e-05
9.06241e-08
9.95574e-05
1.18792e-07
9.94875e-05
1.36833e-07
9.94135e-05
1.4465e-07
9.934e-05
1.43947e-07
9.927e-05
1.37275e-07
9.92053e-05
1.2718e-07
9.91466e-05
1.15694e-07
9.9094e-05
1.04143e-07
9.90471e-05
9.32112e-08
9.90056e-05
8.31034e-08
9.8969e-05
7.37527e-08
9.89371e-05
6.49626e-08
9.89097e-05
5.65175e-08
9.88867e-05
4.8231e-08
9.88681e-05
3.99728e-08
9.88539e-05
3.16612e-08
9.88441e-05
2.32611e-08
9.88389e-05
1.47607e-08
9.88382e-05
6.17633e-09
9.88422e-05
-2.47312e-09
9.88507e-05
-1.11517e-08
9.88639e-05
-1.98259e-08
9.88816e-05
-2.84586e-08
9.89038e-05
-3.70079e-08
9.89305e-05
-4.543e-08
9.89616e-05
-5.36758e-08
9.89969e-05
-6.16955e-08
9.90362e-05
-6.94342e-08
9.90795e-05
-7.6828e-08
9.91265e-05
-8.38097e-08
9.9177e-05
-9.03041e-08
9.92305e-05
-9.6231e-08
9.92869e-05
-1.01502e-07
9.93456e-05
-1.06021e-07
9.94063e-05
-1.09685e-07
9.94685e-05
-1.12382e-07
9.95315e-05
-1.13991e-07
9.95947e-05
-1.1438e-07
9.96575e-05
-1.13409e-07
9.97191e-05
-1.10923e-07
9.97785e-05
-1.06752e-07
9.98348e-05
-1.0071e-07
9.9887e-05
-9.25917e-08
9.99338e-05
-8.21649e-08
9.99739e-05
-6.91688e-08
0.000100006
-5.33067e-08
0.000100028
-3.42396e-08
0.000100038
-1.15683e-08
0.000100035
1.51651e-08
0.000100016
4.651e-08
9.99775e-05
8.31118e-08
9.99174e-05
1.25752e-07
9.98318e-05
1.75376e-07
9.97167e-05
2.33148e-07
9.95671e-05
3.00505e-07
9.93773e-05
3.79247e-07
9.91404e-05
4.71652e-07
9.88481e-05
5.80641e-07
9.84903e-05
7.10001e-07
9.80544e-05
8.64716e-07
9.75247e-05
1.05144e-06
9.68812e-05
1.27921e-06
9.60983e-05
1.56044e-06
9.51426e-05
1.91255e-06
9.397e-05
2.36025e-06
9.2522e-05
2.93913e-06
9.07203e-05
3.70082e-06
8.84616e-05
4.72018e-06
8.56144e-05
6.10344e-06
8.20279e-05
7.99428e-06
7.75828e-05
1.05739e-05
7.24129e-05
1.39921e-05
1.78391e-05
6.8139e-05
0.000106592
-4.68385e-08
0.000106619
-7.57557e-08
0.000106649
-8.30643e-08
0.000106674
-6.65714e-08
0.000106685
-2.85733e-08
0.000106677
2.47218e-08
0.000106648
8.40413e-08
0.0001066
1.39514e-07
0.000106536
1.83382e-07
0.000106462
2.1162e-07
0.000106383
2.24031e-07
0.000106305
2.23222e-07
0.00010623
2.13113e-07
0.000106161
1.97647e-07
0.000106098
1.79964e-07
0.000106041
1.62137e-07
0.000105991
1.45236e-07
0.000105946
1.29599e-07
0.000105906
1.15122e-07
0.000105872
1.01518e-07
0.000105842
8.84502e-08
0.000105817
7.56392e-08
0.000105796
6.28817e-08
0.00010578
5.00542e-08
0.000105769
3.70978e-08
0.000105763
2.39975e-08
0.000105761
1.07734e-08
0.000105764
-2.53746e-09
0.000105772
-1.58865e-08
0.000105785
-2.92202e-08
0.000105802
-4.24799e-08
0.000105825
-5.56026e-08
0.000105852
-6.85196e-08
0.000105883
-8.11583e-08
0.000105919
-9.34371e-08
0.000105959
-1.0527e-07
0.000106003
-1.16563e-07
0.000106051
-1.27209e-07
0.000106103
-1.37095e-07
0.000106157
-1.46096e-07
0.000106215
-1.54074e-07
0.000106275
-1.60881e-07
0.000106336
-1.6636e-07
0.000106399
-1.70337e-07
0.000106463
-1.72627e-07
0.000106527
-1.73027e-07
0.000106591
-1.71322e-07
0.000106653
-1.67272e-07
0.000106712
-1.6062e-07
0.000106768
-1.51081e-07
0.000106819
-1.38338e-07
0.000106865
-1.2204e-07
0.000106903
-1.01789e-07
0.000106933
-7.71339e-08
0.000106952
-4.75581e-08
0.000106959
-1.24617e-08
0.000106951
2.88504e-08
0.000106926
7.71955e-08
0.000106882
1.33544e-07
0.000106814
1.99059e-07
0.000106721
2.75145e-07
0.000106596
3.63515e-07
0.000106436
4.66277e-07
0.000106235
5.86049e-07
0.000105987
7.26116e-07
0.000105683
8.90643e-07
0.000105313
1.08497e-06
0.000104868
1.31601e-06
0.000104332
1.59284e-06
0.00010369
1.9275e-06
0.00010292
2.33611e-06
0.000101998
2.84052e-06
0.000100893
3.47043e-06
9.95715e-05
4.26632e-06
9.7995e-05
5.28281e-06
9.61292e-05
6.59155e-06
9.39578e-05
8.28026e-06
9.15173e-05
1.04402e-05
8.8972e-05
1.31245e-05
8.67572e-05
1.62122e-05
1.90227e-05
8.55789e-05
0.000114058
-6.42871e-08
0.000114087
-1.04767e-07
0.00011412
-1.15224e-07
0.000114147
-9.30214e-08
0.000114159
-4.11685e-08
0.000114153
3.18816e-08
0.000114124
1.1344e-07
0.000114074
1.89961e-07
0.000114007
2.50748e-07
0.000113929
2.90181e-07
0.000113846
3.07892e-07
0.000113763
3.0738e-07
0.000113683
2.93977e-07
0.000113609
2.73071e-07
0.000113542
2.48998e-07
0.000113481
2.24621e-07
0.000113426
2.01437e-07
0.000113377
1.79949e-07
0.000113334
1.60041e-07
0.000113297
1.41328e-07
0.000113264
1.23366e-07
0.000113236
1.05774e-07
0.000113213
8.82775e-08
0.000113195
7.0708e-08
0.000113182
5.29815e-08
0.000113174
3.50816e-08
0.000113171
1.70288e-08
0.000113173
-1.12412e-09
0.00011318
-1.93138e-08
0.000113192
-3.74633e-08
0.000113209
-5.54941e-08
0.00011323
-7.33196e-08
0.000113257
-9.08442e-08
0.000113288
-1.07969e-07
0.000113323
-1.24585e-07
0.000113363
-1.40572e-07
0.000113407
-1.558e-07
0.000113455
-1.70122e-07
0.000113506
-1.83385e-07
0.000113561
-1.95414e-07
0.000113618
-2.06027e-07
0.000113677
-2.15019e-07
0.000113739
-2.22174e-07
0.000113801
-2.27257e-07
0.000113864
-2.30014e-07
0.000113927
-2.30172e-07
0.000113989
-2.27435e-07
0.000114049
-2.21482e-07
0.000114106
-2.11962e-07
0.00011416
-1.9849e-07
0.000114208
-1.8064e-07
0.00011425
-1.57939e-07
0.000114284
-1.29852e-07
0.000114309
-9.57779e-08
0.000114323
-5.50257e-08
0.000114323
-6.80074e-09
0.000114309
4.98155e-08
0.000114276
1.15897e-07
0.000114223
1.92711e-07
0.000114147
2.81772e-07
0.000114044
3.84892e-07
0.000113909
5.04267e-07
0.000113739
6.42569e-07
0.000113529
8.03085e-07
0.000113271
9.89887e-07
0.00011296
1.20806e-06
0.000112587
1.46402e-06
0.000112143
1.76589e-06
0.000111618
2.12409e-06
0.000111
2.552e-06
0.000110275
3.06694e-06
0.000109431
3.6913e-06
0.000108453
4.4539e-06
0.000107334
5.3913e-06
0.000106075
6.54841e-06
0.000104695
7.97669e-06
0.000103255
9.72647e-06
0.000101875
1.18262e-05
0.000100769
1.42362e-05
0.000100233
1.67536e-05
1.88545e-05
0.000100407
0.000122047
-8.2771e-08
0.000122079
-1.35864e-07
0.000122114
-1.50043e-07
0.000122143
-1.22297e-07
0.000122159
-5.62838e-08
0.000122154
3.72641e-08
0.000122125
1.42162e-07
0.000122075
2.41033e-07
0.000122006
3.20062e-07
0.000121926
3.71881e-07
0.000121839
3.95842e-07
0.000121751
3.96272e-07
0.000121666
3.79924e-07
0.000121587
3.53683e-07
0.000121514
3.23129e-07
0.000121448
2.9198e-07
0.000121389
2.62233e-07
0.000121336
2.34574e-07
0.000121289
2.08914e-07
0.000121248
1.84785e-07
0.000121212
1.61646e-07
0.000121182
1.39013e-07
0.000121156
1.16541e-07
0.000121136
9.40136e-08
0.00012112
7.13219e-08
0.00012111
4.84414e-08
0.000121105
2.54003e-08
0.000121105
2.2613e-09
0.000121111
-2.08905e-08
0.000121121
-4.39641e-08
0.000121136
-6.68547e-08
0.000121157
-8.94523e-08
0.000121182
-1.11635e-07
0.000121212
-1.33274e-07
0.000121246
-1.54229e-07
0.000121285
-1.74348e-07
0.000121328
-1.9346e-07
0.000121374
-2.11383e-07
0.000121424
-2.27914e-07
0.000121477
-2.42836e-07
0.000121532
-2.5591e-07
0.00012159
-2.66881e-07
0.000121649
-2.7547e-07
0.000121709
-2.8138e-07
0.000121769
-2.84288e-07
0.000121829
-2.83848e-07
0.000121888
-2.79685e-07
0.000121944
-2.71395e-07
0.000121997
-2.58536e-07
0.000122045
-2.40622e-07
0.000122088
-2.17122e-07
0.000122124
-1.87444e-07
0.000122152
-1.50923e-07
0.00012217
-1.06814e-07
0.000122175
-5.42668e-08
0.000122168
7.6934e-09
0.000122144
8.01832e-08
0.000122102
1.64501e-07
0.00012204
2.62173e-07
0.000121953
3.74999e-07
0.00012184
5.0512e-07
0.000121696
6.55095e-07
0.000121517
8.28008e-07
0.000121299
1.02759e-06
0.000121037
1.2584e-06
0.000120726
1.52599e-06
0.00012036
1.83725e-06
0.000119931
2.20065e-06
0.000119435
2.6267e-06
0.000118866
3.12841e-06
0.000118217
3.72184e-06
0.000117488
4.42664e-06
0.000116682
5.26637e-06
0.000115812
6.26832e-06
0.000114905
7.46203e-06
0.000114013
8.87505e-06
0.000113222
1.05235e-05
0.00011266
1.23937e-05
0.000112492
1.44103e-05
0.000112863
1.63892e-05
1.79926e-05
0.000113731
0.000130596
-1.02355e-07
0.000130629
-1.69198e-07
0.000130667
-1.87832e-07
0.0001307
-1.54926e-07
0.000130719
-7.47083e-08
0.000130717
3.98559e-08
0.000130691
1.69039e-07
0.000130641
2.91534e-07
0.000130571
3.90243e-07
0.000130488
4.55855e-07
0.000130398
4.87283e-07
0.000130306
4.89588e-07
0.000130216
4.70901e-07
0.000130131
4.39621e-07
0.000130053
4.02626e-07
0.000129983
3.64577e-07
0.000129919
3.28008e-07
0.000129861
2.93873e-07
0.00012981
2.62131e-07
0.000129765
2.3227e-07
0.000129726
2.0365e-07
0.000129692
1.75707e-07
0.000129663
1.48022e-07
0.00012964
1.20326e-07
0.000129622
9.24905e-08
0.000129609
6.44782e-08
0.000129602
3.63215e-08
0.0001296
8.09408e-09
0.000129603
-2.01033e-08
0.000129612
-4.81568e-08
0.000129625
-7.59399e-08
0.000129643
-1.03314e-07
0.000129667
-1.30135e-07
0.000129694
-1.56241e-07
0.000129727
-1.81458e-07
0.000129763
-2.05601e-07
0.000129804
-2.2846e-07
0.000129848
-2.4981e-07
0.000129895
-2.69406e-07
0.000129945
-2.86979e-07
0.000129997
-3.02241e-07
0.000130051
-3.1488e-07
0.000130106
-3.24557e-07
0.000130162
-3.30911e-07
0.000130218
-3.33552e-07
0.000130273
-3.32061e-07
0.000130326
-3.25988e-07
0.000130376
-3.14846e-07
0.000130422
-2.98106e-07
0.000130464
-2.75189e-07
0.000130499
-2.45462e-07
0.000130527
-2.08223e-07
0.000130546
-1.62694e-07
0.000130554
-1.07998e-07
0.00013055
-4.31464e-08
0.000130532
3.29846e-08
0.000130497
1.2167e-07
0.000130445
2.24387e-07
0.000130371
3.42853e-07
0.000130275
4.7907e-07
0.000130151
6.35391e-07
0.000129999
8.14587e-07
0.000129815
1.01994e-06
0.000129594
1.25537e-06
0.000129334
1.52552e-06
0.000129031
1.83596e-06
0.000128682
2.19337e-06
0.000128284
2.60569e-06
0.000127836
3.0824e-06
0.000127337
3.63468e-06
0.00012679
4.27556e-06
0.000126204
5.01986e-06
0.000125593
5.88379e-06
0.000124984
6.88387e-06
0.000124419
8.03456e-06
0.000123957
9.34387e-06
0.000123681
1.08056e-05
0.000123694
1.23873e-05
0.000124098
1.40134e-05
0.000124946
1.55477e-05
1.67892e-05
0.000126156
0.000139743
-1.2312e-07
0.000139779
-2.04931e-07
0.000139821
-2.28925e-07
0.000139857
-1.91494e-07
0.00013988
-9.73174e-08
0.000139882
3.8494e-08
0.000139859
1.92714e-07
0.000139811
3.40049e-07
0.000139743
4.59962e-07
0.000139658
5.40997e-07
0.000139565
5.81408e-07
0.000139469
5.86837e-07
0.000139375
5.66707e-07
0.000139285
5.30921e-07
0.000139201
4.87703e-07
0.000139125
4.42712e-07
0.000139056
3.99125e-07
0.000138994
3.58215e-07
0.000138938
3.20054e-07
0.000138889
2.8412e-07
0.000138845
2.4971e-07
0.000138808
2.16177e-07
0.000138776
1.83035e-07
0.00013875
1.49973e-07
0.000138729
1.1683e-07
0.000138713
8.35567e-08
0.000138703
5.01895e-08
0.000138699
1.68105e-08
0.000138699
-1.64648e-08
0.000138705
-4.9498e-08
0.000138716
-8.21437e-08
0.000138732
-1.14237e-07
0.000138752
-1.456e-07
0.000138777
-1.76045e-07
0.000138807
-2.05366e-07
0.00013884
-2.33336e-07
0.000138877
-2.5971e-07
0.000138917
-2.8422e-07
0.000138961
-3.06575e-07
0.000139006
-3.26459e-07
0.000139054
-3.4353e-07
0.000139103
-3.57422e-07
0.000139153
-3.67738e-07
0.000139203
-3.74054e-07
0.000139252
-3.75916e-07
0.0001393
-3.72838e-07
0.000139345
-3.64294e-07
0.000139387
-3.49723e-07
0.000139425
-3.28514e-07
0.000139457
-3.00007e-07
0.000139482
-2.63478e-07
0.0001395
-2.18133e-07
0.000139508
-1.63093e-07
0.000139505
-9.73811e-08
0.000139489
-1.98981e-08
0.000139459
7.05806e-08
0.000139413
1.75444e-07
0.000139349
2.96281e-07
0.000139265
4.34914e-07
0.000139158
5.93439e-07
0.000139027
7.74276e-07
0.000138869
9.8023e-07
0.000138682
1.21456e-06
0.000138464
1.48103e-06
0.000138213
1.78406e-06
0.000137928
2.12872e-06
0.000137608
2.52088e-06
0.000137254
2.96726e-06
0.000136869
3.47547e-06
0.000136457
4.05394e-06
0.000136029
4.71175e-06
0.000135598
5.45828e-06
0.000135186
6.30235e-06
0.000134827
7.25096e-06
0.000134561
8.30706e-06
0.000134446
9.46616e-06
0.000134548
1.07114e-05
0.000134935
1.20073e-05
0.000135663
1.32925e-05
0.000136741
1.44764e-05
1.54447e-05
0.000138093
0.000149531
-1.45126e-07
0.00014957
-2.43209e-07
0.000149615
-2.73666e-07
0.000149656
-2.32604e-07
0.000149684
-1.25045e-07
0.000149692
3.19256e-08
0.000149673
2.11695e-07
0.000149629
3.84989e-07
0.000149562
5.27696e-07
0.000149478
6.25985e-07
0.000149384
6.77203e-07
0.000149284
6.8734e-07
0.000149185
6.6698e-07
0.00014909
6.27484e-07
0.000149001
5.78446e-07
0.00014892
5.26607e-07
0.000148845
4.75867e-07
0.000148777
4.27914e-07
0.000148717
3.83005e-07
0.000148663
3.40654e-07
0.000148616
3.00126e-07
0.000148574
2.60718e-07
0.000148539
2.2188e-07
0.000148509
1.83258e-07
0.000148485
1.4466e-07
0.000148466
1.06027e-07
0.000148453
6.73884e-08
0.000148445
2.88385e-08
0.000148443
-9.49528e-09
0.000148446
-4.74545e-08
0.000148453
-8.48677e-08
0.000148466
-1.21548e-07
0.000148483
-1.57288e-07
0.000148504
-1.91864e-07
0.00014853
-2.25041e-07
0.000148559
-2.56553e-07
0.000148592
-2.86115e-07
0.000148627
-3.13421e-07
0.000148665
-3.3813e-07
0.000148705
-3.59883e-07
0.000148747
-3.78285e-07
0.000148789
-3.92918e-07
0.000148832
-4.03331e-07
0.000148874
-4.09041e-07
0.000148915
-4.09533e-07
0.000148954
-4.04259e-07
0.00014899
-3.9263e-07
0.000149022
-3.74017e-07
0.000149049
-3.47741e-07
0.00014907
-3.13071e-07
0.000149084
-2.69212e-07
0.000149089
-2.153e-07
0.000149084
-1.50384e-07
0.000149068
-7.34147e-08
0.00014904
1.6764e-08
0.000148997
1.21432e-07
0.000148939
2.4203e-07
0.000148863
3.80178e-07
0.000148768
5.37701e-07
0.000148654
7.16664e-07
0.000148517
9.19404e-07
0.000148357
1.14857e-06
0.000148172
1.40714e-06
0.000147963
1.69851e-06
0.000147729
2.02646e-06
0.000147471
2.39522e-06
0.00014719
2.80942e-06
0.000146892
3.2741e-06
0.000146581
3.79455e-06
0.000146267
4.37616e-06
0.000145962
5.02407e-06
0.000145686
5.74262e-06
0.000145462
6.53461e-06
0.00014532
7.40011e-06
0.0001453
8.33492e-06
0.000145446
9.32846e-06
0.000145804
1.03612e-05
0.000146416
1.14023e-05
0.000147309
1.24072e-05
0.000148474
1.33191e-05
1.40747e-05
0.000149851
0.000160005
-1.68438e-07
0.000160046
-2.8418e-07
0.000160095
-3.22366e-07
0.000160142
-2.78819e-07
0.000160176
-1.58782e-07
0.00016019
1.89207e-08
0.000160177
2.2448e-07
0.000160139
4.24704e-07
0.000160075
5.91818e-07
0.000159993
7.09369e-07
0.000159898
7.73486e-07
0.000159796
7.90242e-07
0.000159694
7.71185e-07
0.000159594
7.29049e-07
0.000159499
6.74812e-07
0.000159412
6.16363e-07
0.000159331
5.58433e-07
0.000159259
5.03218e-07
0.000159193
4.51248e-07
0.000159134
4.02142e-07
0.000159082
3.55173e-07
0.000159037
3.09602e-07
0.000158997
2.64836e-07
0.000158964
2.20477e-07
0.000158936
1.76304e-07
0.000158914
1.32239e-07
0.000158898
8.83108e-08
0.000158886
4.46148e-08
0.000158881
1.29707e-09
0.00015888
-4.14704e-08
0.000158884
-8.34895e-08
0.000158892
-1.24555e-07
0.000158905
-1.64423e-07
0.000158922
-2.02841e-07
0.000158943
-2.3954e-07
0.000158967
-2.74218e-07
0.000158994
-3.06552e-07
0.000159023
-3.36191e-07
0.000159055
-3.62757e-07
0.000159088
-3.85842e-07
0.000159122
-4.05007e-07
0.000159156
-4.19784e-07
0.00015919
-4.2967e-07
0.000159223
-4.34134e-07
0.000159254
-4.32609e-07
0.000159282
-4.2449e-07
0.000159307
-4.09139e-07
0.000159327
-3.8587e-07
0.000159341
-3.53954e-07
0.000159349
-3.12608e-07
0.000159349
-2.60993e-07
0.000159341
-1.98197e-07
0.000159322
-1.23235e-07
0.000159293
-3.50309e-08
0.00015925
6.75795e-08
0.000159195
1.85875e-07
0.000159124
3.2127e-07
0.000159038
4.75328e-07
0.000158935
6.49773e-07
0.000158814
8.46509e-07
0.000158674
1.06764e-06
0.000158516
1.31547e-06
0.00015834
1.59255e-06
0.000158146
1.9016e-06
0.000157935
2.24559e-06
0.000157712
2.62761e-06
0.000157479
3.05087e-06
0.000157243
3.51856e-06
0.000157013
4.03365e-06
0.000156799
4.59869e-06
0.000156616
5.21544e-06
0.000156483
5.88436e-06
0.000156422
6.60407e-06
0.00015646
7.37049e-06
0.000156627
8.17598e-06
0.000156956
9.00832e-06
0.000157475
9.84969e-06
0.00015821
1.0676e-05
0.000159168
1.14573e-05
0.000160336
1.21589e-05
1.27463e-05
0.000161672
0.000171212
-1.93094e-07
0.000171256
-3.27942e-07
0.000171309
-3.75274e-07
0.000171362
-3.30621e-07
0.000171403
-1.99304e-07
0.000171424
-1.62658e-09
0.000171419
2.29675e-07
0.000171387
4.57627e-07
0.000171329
6.50717e-07
0.00017125
7.89637e-07
0.000171156
8.68967e-07
0.000171053
8.94531e-07
0.000170947
8.78607e-07
0.000170843
8.35178e-07
0.000170743
7.76589e-07
0.00017065
7.11944e-07
0.000170564
6.46902e-07
0.000170485
5.8429e-07
0.000170414
5.24995e-07
0.000170351
4.68825e-07
0.000170294
4.1511e-07
0.000170244
3.63108e-07
0.000170201
3.12202e-07
0.000170163
2.61952e-07
0.000170132
2.12111e-07
0.000170106
1.62586e-07
0.000170085
1.13394e-07
0.00017007
6.46379e-08
0.00017006
1.64665e-08
0.000170055
-3.09282e-08
0.000170055
-7.73173e-08
0.000170058
-1.22492e-07
0.000170066
-1.66158e-07
0.000170078
-2.08044e-07
0.000170093
-2.47844e-07
0.000170111
-2.85223e-07
0.000170131
-3.1982e-07
0.000170153
-3.51245e-07
0.000170177
-3.79083e-07
0.000170202
-4.02882e-07
0.000170226
-4.22164e-07
0.000170251
-4.36417e-07
0.000170275
-4.45099e-07
0.000170296
-4.47633e-07
0.000170315
-4.43411e-07
0.000170331
-4.3179e-07
0.000170343
-4.12091e-07
0.000170349
-3.83596e-07
0.00017035
-3.45541e-07
0.000170343
-2.97122e-07
0.000170329
-2.37475e-07
0.000170305
-1.65684e-07
0.000170272
-8.07661e-08
0.000170228
1.83278e-08
0.000170172
1.32718e-07
0.000170104
2.63619e-07
0.000170022
4.12345e-07
0.000169927
5.80309e-07
0.000169817
7.69031e-07
0.000169693
9.80141e-07
0.000169554
1.21538e-06
0.000169403
1.47659e-06
0.000169239
1.76569e-06
0.000169065
2.08466e-06
0.000168885
2.43549e-06
0.000168702
2.82008e-06
0.000168522
3.24019e-06
0.000168353
3.69727e-06
0.000168203
4.19228e-06
0.000168086
4.72549e-06
0.000168014
5.29613e-06
0.000168006
5.90215e-06
0.000168079
6.53973e-06
0.000168256
7.20293e-06
0.000168557
7.88326e-06
0.000169005
8.56932e-06
0.000169617
9.24663e-06
0.000170404
9.89781e-06
0.000171367
1.05032e-05
0.000172492
1.10424e-05
1.14964e-05
0.00017375
0.000183205
-2.19117e-07
0.000183251
-3.74553e-07
0.000183309
-4.32543e-07
0.000183367
-3.88326e-07
0.000183415
-2.47171e-07
0.000183445
-3.05507e-08
0.000183449
2.26174e-07
0.000183425
4.82432e-07
0.000183374
7.02962e-07
0.0001833
8.65369e-07
0.000183208
9.6234e-07
0.000183105
9.99104e-07
0.000182997
9.88385e-07
0.000182888
9.45254e-07
0.000182784
8.83388e-07
0.000182685
8.13151e-07
0.000182593
7.41231e-07
0.000182509
6.71189e-07
0.000182433
6.04394e-07
0.000182364
5.40907e-07
0.000182302
4.8019e-07
0.000182248
4.21535e-07
0.000182199
3.64313e-07
0.000182158
3.08063e-07
0.000182122
2.52513e-07
0.000182091
1.97548e-07
0.000182067
1.43178e-07
0.000182047
8.95013e-08
0.000182032
3.66798e-08
0.000182022
-1.50815e-08
0.000182017
-6.55386e-08
0.000182015
-1.14456e-07
0.000182017
-1.61513e-07
0.000182022
-2.06402e-07
0.00018203
-2.48806e-07
0.00018204
-2.88335e-07
0.000182053
-3.24604e-07
0.000182066
-3.57188e-07
0.000182081
-3.85638e-07
0.000182095
-4.09467e-07
0.00018211
-4.28163e-07
0.000182123
-4.41181e-07
0.000182134
-4.47945e-07
0.000182143
-4.4785e-07
0.000182149
-4.4026e-07
0.000182151
-4.24509e-07
0.000182148
-3.99897e-07
0.00018214
-3.65693e-07
0.000182125
-3.21128e-07
0.000182102
-2.65398e-07
0.000182072
-1.97659e-07
0.000182033
-1.1702e-07
0.000181985
-2.25507e-08
0.000181926
8.67204e-08
0.000181857
2.11818e-07
0.000181777
3.53829e-07
0.000181686
5.13888e-07
0.000181583
6.93183e-07
0.000181469
8.92943e-07
0.000181345
1.11444e-06
0.000181211
1.35895e-06
0.00018107
1.62777e-06
0.000180924
1.92214e-06
0.000180775
2.24323e-06
0.000180629
2.59205e-06
0.00018049
2.96939e-06
0.000180364
3.37573e-06
0.00018026
3.81108e-06
0.000180188
4.27486e-06
0.000180157
4.76571e-06
0.000180182
5.28134e-06
0.000180276
5.8183e-06
0.000180453
6.37179e-06
0.00018073
6.93553e-06
0.000181122
7.50162e-06
0.00018164
8.06059e-06
0.000182294
8.60149e-06
0.000183089
9.11228e-06
0.000184021
9.58047e-06
0.000185079
9.99408e-06
1.0343e-05
0.000186241
0.000196037
-2.46506e-07
0.000196086
-4.24005e-07
0.000196148
-4.94199e-07
0.000196212
-4.52038e-07
0.000196268
-3.02627e-07
0.000196307
-6.83132e-08
0.00019632
2.13269e-07
0.000196306
4.98182e-07
0.000196262
7.47428e-07
0.000196194
9.35342e-07
0.000196105
1.05239e-06
0.000196003
1.10284e-06
0.000195894
1.09956e-06
0.000195782
1.05852e-06
0.000195673
9.94659e-07
0.00019557
9.19633e-07
0.000195472
8.41237e-07
0.000195382
7.63889e-07
0.000195301
6.89532e-07
0.000195226
6.18585e-07
0.00019516
5.50692e-07
0.0001951
4.85231e-07
0.000195047
4.21587e-07
0.000195
3.59293e-07
0.000194959
2.98055e-07
0.000194924
2.3774e-07
0.000194895
1.78346e-07
0.00019487
1.1997e-07
0.000194849
6.2777e-08
0.000194834
6.97856e-09
0.000194822
-4.71401e-08
0.000194813
-9.93648e-08
0.000194808
-1.49322e-07
0.000194806
-1.96656e-07
0.000194805
-2.41089e-07
0.000194807
-2.82137e-07
0.00019481
-3.19415e-07
0.000194813
-3.52466e-07
0.000194817
-3.80813e-07
0.00019482
-4.03939e-07
0.000194822
-4.21316e-07
0.000194822
-4.32368e-07
0.00019482
-4.36504e-07
0.000194814
-4.33104e-07
0.000194805
-4.21522e-07
0.000194792
-4.01086e-07
0.000194773
-3.71101e-07
0.000194748
-3.30844e-07
0.000194716
-2.79573e-07
0.000194678
-2.16516e-07
0.000194631
-1.40878e-07
0.000194576
-5.18429e-08
0.000194513
5.14212e-08
0.00019444
1.69766e-07
0.000194359
3.04074e-07
0.000194268
4.55238e-07
0.000194169
6.24158e-07
0.000194061
8.11731e-07
0.000193946
1.01884e-06
0.000193824
1.24634e-06
0.000193699
1.49501e-06
0.000193572
1.76557e-06
0.000193447
2.05859e-06
0.000193326
2.37446e-06
0.000193216
2.71335e-06
0.000193121
3.0751e-06
0.000193048
3.45916e-06
0.000193005
3.86452e-06
0.000193001
4.28957e-06
0.000193045
4.732e-06
0.000193148
5.18877e-06
0.000193321
5.65594e-06
0.000193575
6.12868e-06
0.000193919
6.60123e-06
0.000194364
7.06698e-06
0.000194916
7.51854e-06
0.00019558
7.94804e-06
0.000196355
8.3474e-06
0.000197236
8.70881e-06
0.000198215
9.02532e-06
9.29156e-06
0.000199276
0.000209767
-2.75228e-07
0.00020982
-4.76217e-07
0.000209886
-5.60124e-07
0.000209956
-5.2163e-07
0.00021002
-3.65582e-07
0.000210067
-1.14926e-07
0.00021009
1.90766e-07
0.000210085
5.0444e-07
0.00021005
7.83441e-07
0.000209988
9.98686e-07
0.000209904
1.13812e-06
0.000209804
1.20471e-06
0.000209694
1.21115e-06
0.000209581
1.17412e-06
0.000209468
1.10972e-06
0.00020936
1.0309e-06
0.000209257
9.4664e-07
0.000209162
8.62286e-07
0.000209074
7.80471e-07
0.000208995
7.02053e-07
0.000208922
6.26934e-07
0.000208857
5.5462e-07
0.000208799
4.84548e-07
0.000208747
4.16257e-07
0.0002087
3.49441e-07
0.00020866
2.83953e-07
0.000208624
2.19781e-07
0.000208593
1.57012e-07
0.000208566
9.5816e-08
0.000208543
3.64153e-08
0.000208524
-2.09136e-08
0.000208508
-7.58887e-08
0.000208494
-1.28157e-07
0.000208482
-1.77355e-07
0.000208472
-2.23115e-07
0.000208463
-2.64996e-07
0.000208455
-3.02562e-07
0.000208447
-3.35339e-07
0.000208438
-3.62832e-07
0.000208427
-3.845e-07
0.000208415
-3.99822e-07
0.000208401
-4.08194e-07
0.000208383
-4.0903e-07
0.000208362
-4.0171e-07
0.000208336
-3.85603e-07
0.000208305
-3.60049e-07
0.000208269
-3.24379e-07
0.000208227
-2.77915e-07
0.000208178
-2.19962e-07
0.000208122
-1.49815e-07
0.000208059
-6.67714e-08
0.000207988
2.98742e-08
0.00020791
1.40818e-07
0.000207824
2.66759e-07
0.000207731
4.08381e-07
0.000207632
5.66343e-07
0.000207526
7.41269e-07
0.000207416
9.33733e-07
0.000207302
1.14424e-06
0.000207186
1.37322e-06
0.000207072
1.62097e-06
0.000206961
1.88765e-06
0.000206858
2.17322e-06
0.000206767
2.47745e-06
0.000206692
2.79979e-06
0.000206639
3.13939e-06
0.000206615
3.49501e-06
0.000206626
3.86497e-06
0.000206679
4.24713e-06
0.000206784
4.63878e-06
0.000206947
5.03668e-06
0.000207177
5.43702e-06
0.000207482
5.83546e-06
0.000207867
6.22716e-06
0.000208338
6.6069e-06
0.000208898
6.96924e-06
0.000209548
7.30868e-06
0.000210286
7.61992e-06
0.000211108
7.89814e-06
0.000212004
8.13938e-06
8.34089e-06
0.000212965
0.00022446
-3.05218e-07
0.000224515
-5.31036e-07
0.000224585
-6.30058e-07
0.00022466
-5.96735e-07
0.000224731
-4.35595e-07
0.000224787
-1.69954e-07
0.00022482
1.58986e-07
0.000224824
5.01322e-07
0.000224798
8.10836e-07
0.000224743
1.05494e-06
0.000224664
1.21883e-06
0.000224567
1.30385e-06
0.000224458
1.32226e-06
0.000224343
1.29122e-06
0.000224227
1.22787e-06
0.000224115
1.14643e-06
0.000224007
1.05709e-06
0.000223907
9.66237e-07
0.000223813
8.77259e-07
0.000223728
7.9154e-07
0.00022365
7.09305e-07
0.000223579
6.30238e-07
0.000223514
5.5386e-07
0.000223456
4.79739e-07
0.000223403
4.07567e-07
0.000223356
3.37192e-07
0.000223313
2.68587e-07
0.000223274
2.01834e-07
0.00022324
1.37102e-07
0.000223209
7.46189e-08
0.00022318
1.46637e-08
0.000223155
-4.24492e-08
0.000223131
-9.63703e-08
0.000223108
-1.4672e-07
0.000223087
-1.93091e-07
0.000223066
-2.35045e-07
0.000223044
-2.72139e-07
0.000223022
-3.03869e-07
0.000222999
-3.29744e-07
0.000222973
-3.49224e-07
0.000222945
-3.61767e-07
0.000222914
-3.66803e-07
0.000222879
-3.63748e-07
0.00022284
-3.51992e-07
0.000222796
-3.30964e-07
0.000222747
-3.00018e-07
0.000222693
-2.5855e-07
0.000222632
-2.05947e-07
0.000222565
-1.41594e-07
0.000222492
-6.4884e-08
0.000222412
2.47594e-08
0.000222326
1.27898e-07
0.000222233
2.45071e-07
0.000222135
3.76784e-07
0.000222032
5.23493e-07
0.000221925
6.85599e-07
0.000221815
8.63433e-07
0.000221704
1.05724e-06
0.000221593
1.26716e-06
0.000221486
1.49321e-06
0.000221384
1.73525e-06
0.000221291
1.99297e-06
0.00022121
2.26586e-06
0.000221147
2.55318e-06
0.000221105
2.85389e-06
0.00022109
3.16669e-06
0.000221107
3.48995e-06
0.000221163
3.82167e-06
0.000221262
4.15953e-06
0.000221412
4.50081e-06
0.000221619
4.84246e-06
0.000221886
5.18113e-06
0.000222221
5.51316e-06
0.000222625
5.83473e-06
0.000223102
6.14192e-06
0.000223652
6.43084e-06
0.000224274
6.69775e-06
0.000224966
6.93924e-06
0.000225723
7.15241e-06
0.000226539
7.33503e-06
7.48578e-06
0.000227405
0.000240181
-3.36378e-07
0.000240238
-5.8823e-07
0.000240312
-7.0361e-07
0.000240393
-6.76779e-07
0.00024047
-5.11927e-07
0.000240533
-2.32568e-07
0.000240574
1.18732e-07
0.000240587
4.89456e-07
0.00024057
8.29954e-07
0.000240522
1.10411e-06
0.000240448
1.29421e-06
0.000240355
1.39971e-06
0.000240247
1.43218e-06
0.000240131
1.40906e-06
0.000240014
1.34841e-06
0.000239897
1.26566e-06
0.000239786
1.17225e-06
0.00023968
1.07561e-06
0.000239581
9.79987e-07
0.000239489
8.87342e-07
0.000239405
7.98289e-07
0.000239327
7.1274e-07
0.000239256
6.30336e-07
0.00023919
5.50694e-07
0.00023913
4.73527e-07
0.000239075
3.98674e-07
0.000239024
3.26102e-07
0.000238976
2.55889e-07
0.000238932
1.88195e-07
0.000238891
1.23253e-07
0.000238852
6.13451e-08
0.000238815
2.79414e-09
0.000238779
-5.20358e-08
0.000238744
-1.02767e-07
0.000238709
-1.48976e-07
0.000238673
-1.90214e-07
0.000238637
-2.26049e-07
0.000238599
-2.55959e-07
0.000238559
-2.79472e-07
0.000238516
-2.96058e-07
0.00023847
-3.05184e-07
0.000238421
-3.06308e-07
0.000238367
-2.98879e-07
0.000238308
-2.82344e-07
0.000238245
-2.56151e-07
0.000238177
-2.19747e-07
0.000238103
-1.7258e-07
0.000238023
-1.14171e-07
0.000237937
-4.39745e-08
0.000237846
3.84716e-08
0.00023775
1.33603e-07
0.000237649
2.41822e-07
0.000237543
3.63479e-07
0.000237434
4.98865e-07
0.000237322
6.48202e-07
0.000237209
8.11627e-07
0.000237096
9.89186e-07
0.000236985
1.18081e-06
0.000236879
1.38632e-06
0.00023678
1.60537e-06
0.000236691
1.83747e-06
0.000236615
2.08195e-06
0.000236556
2.33795e-06
0.000236518
2.60438e-06
0.000236505
2.87994e-06
0.000236522
3.16309e-06
0.000236573
3.45203e-06
0.000236663
3.74474e-06
0.000236796
4.03895e-06
0.000236978
4.33218e-06
0.000237211
4.62178e-06
0.0002375
4.90493e-06
0.000237847