/*--------------------------------*- C++ -*----------------------------------*\
| =========                 |                                                 |
| \\      /  F ield         | OpenFOAM: The Open Source CFD Toolbox           |
|  \\    /   O peration     | Version:  4.1                                   |
|   \\  /    A nd           | Web:      www.OpenFOAM.org                      |
|    \\/     M anipulation  |                                                 |
\*---------------------------------------------------------------------------*/
FoamFile
{
    version     2.0;
    format      ascii;
    class       volScalarField;
    location    "1";
    object      T;
}
// * * * * * * * * * * * * * * * * * * * * * * * * * * * * * * * * * * * * * //

dimensions      [0 0 0 1 0 0 0];

internalField   nonuniform List<scalar> 
12013
(
300
300.001
300.001
300.002
300.002
300.003
300.004
300.005
300.006
300.007
300.008
300.01
300.011
300.013
300.016
300.018
300.021
300.024
300.027
300.031
300.035
300.04
300.045
300.05
300.056
300.063
300.07
300.077
300.085
300.094
300.104
300.114
300.125
300.136
300.148
300.162
300.175
300.19
300.205
300.222
300.239
300.257
300.276
300.296
300.317
300.339
300.362
300.385
300.41
300.436
300.463
300.491
300.521
300.551
300.583
300.615
300.649
300.685
300.721
300.759
300.798
300.839
300.881
300.925
300.97
301.017
301.066
301.116
301.169
301.224
301.281
301.34
301.402
301.468
301.537
301.609
301.687
301.771
301.862
301.964
302.082
300
300.001
300.001
300.002
300.002
300.003
300.004
300.005
300.006
300.007
300.008
300.01
300.011
300.013
300.016
300.018
300.021
300.024
300.027
300.031
300.035
300.04
300.045
300.05
300.056
300.063
300.07
300.077
300.085
300.094
300.104
300.114
300.125
300.136
300.148
300.161
300.175
300.19
300.205
300.222
300.239
300.257
300.276
300.296
300.317
300.339
300.361
300.385
300.41
300.436
300.463
300.491
300.52
300.551
300.582
300.615
300.649
300.684
300.721
300.759
300.798
300.838
300.881
300.924
300.969
301.016
301.065
301.115
301.168
301.222
301.279
301.338
301.4
301.465
301.533
301.606
301.682
301.764
301.852
301.948
302.053
300
300.001
300.001
300.002
300.002
300.003
300.004
300.005
300.006
300.007
300.008
300.01
300.011
300.013
300.016
300.018
300.021
300.024
300.027
300.031
300.035
300.04
300.045
300.05
300.056
300.063
300.07
300.077
300.085
300.094
300.104
300.114
300.125
300.136
300.148
300.161
300.175
300.19
300.205
300.222
300.239
300.257
300.276
300.296
300.317
300.338
300.361
300.385
300.41
300.436
300.463
300.491
300.52
300.55
300.582
300.614
300.648
300.684
300.72
300.758
300.797
300.837
300.879
300.923
300.968
301.014
301.063
301.113
301.165
301.219
301.276
301.334
301.396
301.46
301.527
301.597
301.672
301.75
301.834
301.922
302.014
300
300.001
300.001
300.002
300.002
300.003
300.004
300.005
300.006
300.007
300.008
300.01
300.011
300.013
300.016
300.018
300.021
300.024
300.027
300.031
300.035
300.04
300.045
300.05
300.056
300.063
300.07
300.077
300.085
300.094
300.104
300.114
300.124
300.136
300.148
300.161
300.175
300.19
300.205
300.221
300.238
300.256
300.275
300.295
300.316
300.338
300.361
300.384
300.409
300.435
300.462
300.49
300.519
300.549
300.581
300.613
300.647
300.682
300.718
300.756
300.795
300.835
300.877
300.92
300.965
301.011
301.059
301.109
301.161
301.214
301.27
301.328
301.388
301.451
301.516
301.584
301.656
301.73
301.808
301.888
301.971
300
300.001
300.001
300.002
300.002
300.003
300.004
300.005
300.006
300.007
300.008
300.01
300.011
300.013
300.015
300.018
300.021
300.024
300.027
300.031
300.035
300.04
300.045
300.05
300.056
300.062
300.069
300.077
300.085
300.094
300.103
300.113
300.124
300.136
300.148
300.161
300.175
300.189
300.205
300.221
300.238
300.256
300.275
300.295
300.316
300.337
300.36
300.384
300.408
300.434
300.461
300.489
300.518
300.548
300.579
300.612
300.645
300.68
300.716
300.754
300.792
300.832
300.874
300.917
300.961
301.007
301.054
301.104
301.155
301.207
301.262
301.318
301.377
301.438
301.501
301.567
301.634
301.705
301.776
301.85
301.923
300
300.001
300.001
300.002
300.002
300.003
300.004
300.005
300.006
300.007
300.008
300.01
300.011
300.013
300.015
300.018
300.021
300.024
300.027
300.031
300.035
300.04
300.045
300.05
300.056
300.062
300.069
300.077
300.085
300.094
300.103
300.113
300.124
300.135
300.148
300.161
300.174
300.189
300.204
300.22
300.238
300.255
300.274
300.294
300.315
300.336
300.359
300.383
300.407
300.433
300.46
300.487
300.516
300.546
300.577
300.61
300.643
300.678
300.713
300.751
300.789
300.829
300.87
300.912
300.956
301.001
301.048
301.096
301.146
301.198
301.251
301.306
301.363
301.422
301.482
301.544
301.608
301.674
301.74
301.807
301.874
300
300.001
300.001
300.002
300.002
300.003
300.004
300.005
300.006
300.007
300.008
300.01
300.011
300.013
300.015
300.018
300.021
300.024
300.027
300.031
300.035
300.039
300.044
300.05
300.056
300.062
300.069
300.077
300.085
300.094
300.103
300.113
300.124
300.135
300.147
300.16
300.174
300.188
300.204
300.22
300.237
300.255
300.273
300.293
300.314
300.335
300.358
300.381
300.406
300.431
300.458
300.485
300.514
300.544
300.575
300.607
300.64
300.674
300.71
300.746
300.784
300.823
300.864
300.906
300.949
300.993
301.039
301.086
301.135
301.185
301.237
301.29
301.345
301.401
301.459
301.518
301.578
301.638
301.7
301.761
301.822
300
300.001
300.001
300.002
300.002
300.003
300.004
300.005
300.006
300.007
300.008
300.01
300.011
300.013
300.015
300.018
300.021
300.024
300.027
300.031
300.035
300.039
300.044
300.05
300.056
300.062
300.069
300.076
300.085
300.093
300.103
300.113
300.123
300.135
300.147
300.16
300.173
300.188
300.203
300.219
300.236
300.254
300.272
300.292
300.312
300.334
300.356
300.379
300.404
300.429
300.455
300.483
300.511
300.541
300.571
300.603
300.636
300.67
300.705
300.741
300.778
300.817
300.857
300.898
300.94
300.983
301.028
301.074
301.122
301.17
301.22
301.272
301.324
301.377
301.432
301.487
301.543
301.599
301.656
301.712
301.768
300
300.001
300.001
300.002
300.002
300.003
300.004
300.005
300.006
300.007
300.008
300.01
300.011
300.013
300.015
300.018
300.02
300.024
300.027
300.031
300.035
300.039
300.044
300.05
300.055
300.062
300.069
300.076
300.084
300.093
300.102
300.112
300.123
300.134
300.146
300.159
300.172
300.187
300.202
300.218
300.235
300.252
300.271
300.29
300.311
300.332
300.354
300.377
300.401
300.426
300.453
300.48
300.508
300.537
300.567
300.598
300.631
300.664
300.699
300.734
300.771
300.809
300.848
300.888
300.929
300.972
301.015
301.06
301.106
301.152
301.2
301.249
301.299
301.35
301.401
301.453
301.505
301.557
301.609
301.661
301.712
300
300.001
300.001
300.002
300.002
300.003
300.004
300.005
300.006
300.007
300.008
300.01
300.011
300.013
300.015
300.018
300.02
300.023
300.027
300.03
300.035
300.039
300.044
300.049
300.055
300.061
300.068
300.076
300.084
300.092
300.102
300.112
300.122
300.133
300.145
300.158
300.172
300.186
300.201
300.217
300.233
300.251
300.269
300.288
300.309
300.33
300.352
300.374
300.398
300.423
300.449
300.476
300.503
300.532
300.562
300.593
300.624
300.657
300.691
300.726
300.762
300.799
300.837
300.876
300.916
300.957
300.999
301.042
301.086
301.131
301.177
301.223
301.271
301.318
301.366
301.415
301.463
301.512
301.56
301.607
301.654
300
300.001
300.001
300.002
300.002
300.003
300.004
300.005
300.006
300.007
300.008
300.009
300.011
300.013
300.015
300.018
300.02
300.023
300.027
300.03
300.034
300.039
300.044
300.049
300.055
300.061
300.068
300.075
300.083
300.092
300.101
300.111
300.121
300.133
300.144
300.157
300.17
300.184
300.199
300.215
300.232
300.249
300.267
300.286
300.306
300.327
300.348
300.371
300.395
300.419
300.444
300.471
300.498
300.526
300.556
300.586
300.617
300.649
300.682
300.716
300.751
300.787
300.824
300.862
300.901
300.94
300.981
301.022
301.064
301.107
301.15
301.194
301.239
301.284
301.329
301.374
301.419
301.463
301.508
301.552
301.595
300
300.001
300.001
300.002
300.002
300.003
300.004
300.005
300.006
300.007
300.008
300.009
300.011
300.013
300.015
300.018
300.02
300.023
300.026
300.03
300.034
300.039
300.043
300.049
300.054
300.061
300.067
300.075
300.083
300.091
300.1
300.11
300.12
300.131
300.143
300.156
300.169
300.183
300.198
300.213
300.229
300.247
300.264
300.283
300.303
300.323
300.345
300.367
300.39
300.414
300.439
300.465
300.492
300.52
300.548
300.578
300.608
300.639
300.672
300.705
300.739
300.773
300.809
300.846
300.883
300.921
300.96
300.999
301.039
301.08
301.121
301.162
301.204
301.246
301.288
301.33
301.371
301.413
301.454
301.494
301.534
300
300.001
300.001
300.002
300.002
300.003
300.004
300.005
300.006
300.007
300.008
300.009
300.011
300.013
300.015
300.017
300.02
300.023
300.026
300.03
300.034
300.038
300.043
300.048
300.054
300.06
300.067
300.074
300.082
300.09
300.099
300.109
300.119
300.13
300.142
300.154
300.167
300.181
300.195
300.211
300.227
300.244
300.261
300.28
300.299
300.319
300.34
300.362
300.385
300.409
300.433
300.458
300.484
300.511
300.539
300.568
300.598
300.628
300.659
300.691
300.724
300.758
300.792
300.827
300.863
300.899
300.936
300.973
301.011
301.049
301.088
301.127
301.166
301.205
301.244
301.283
301.321
301.36
301.397
301.435
301.471
300
300.001
300.001
300.002
300.002
300.003
300.004
300.004
300.005
300.007
300.008
300.009
300.011
300.013
300.015
300.017
300.02
300.023
300.026
300.03
300.034
300.038
300.043
300.048
300.053
300.06
300.066
300.073
300.081
300.089
300.098
300.108
300.118
300.129
300.14
300.152
300.165
300.179
300.193
300.208
300.224
300.24
300.258
300.276
300.295
300.315
300.335
300.357
300.379
300.402
300.426
300.45
300.476
300.502
300.529
300.557
300.585
300.615
300.645
300.676
300.707
300.74
300.772
300.806
300.84
300.874
300.909
300.945
300.98
301.016
301.052
301.089
301.125
301.161
301.197
301.233
301.269
301.304
301.339
301.373
301.407
300
300.001
300.001
300.002
300.002
300.003
300.004
300.004
300.005
300.007
300.008
300.009
300.011
300.013
300.015
300.017
300.02
300.023
300.026
300.029
300.033
300.037
300.042
300.047
300.053
300.059
300.065
300.072
300.08
300.088
300.097
300.106
300.116
300.127
300.138
300.15
300.163
300.176
300.19
300.205
300.22
300.237
300.254
300.271
300.29
300.309
300.329
300.35
300.372
300.394
300.417
300.441
300.466
300.491
300.517
300.544
300.572
300.6
300.629
300.658
300.688
300.719
300.75
300.782
300.814
300.847
300.88
300.913
300.946
300.98
301.014
301.048
301.081
301.115
301.149
301.182
301.215
301.247
301.279
301.311
301.342
300
300.001
300.001
300.002
300.002
300.003
300.004
300.004
300.005
300.006
300.008
300.009
300.011
300.013
300.015
300.017
300.019
300.022
300.025
300.029
300.033
300.037
300.042
300.047
300.052
300.058
300.064
300.071
300.079
300.087
300.095
300.105
300.114
300.125
300.136
300.148
300.16
300.173
300.187
300.201
300.216
300.232
300.249
300.266
300.284
300.303
300.322
300.342
300.363
300.385
300.407
300.43
300.454
300.479
300.504
300.53
300.556
300.583
300.611
300.639
300.667
300.696
300.726
300.756
300.786
300.817
300.848
300.879
300.91
300.941
300.973
301.004
301.035
301.066
301.097
301.128
301.158
301.188
301.218
301.247
301.275
300
300.001
300.001
300.002
300.002
300.003
300.003
300.004
300.005
300.006
300.008
300.009
300.011
300.012
300.014
300.017
300.019
300.022
300.025
300.028
300.032
300.036
300.041
300.046
300.051
300.057
300.063
300.07
300.077
300.085
300.094
300.103
300.112
300.122
300.133
300.145
300.157
300.169
300.183
300.197
300.211
300.227
300.243
300.26
300.277
300.295
300.314
300.334
300.354
300.375
300.396
300.418
300.441
300.465
300.489
300.513
300.538
300.564
300.59
300.617
300.644
300.671
300.699
300.727
300.756
300.784
300.813
300.842
300.871
300.9
300.929
300.958
300.987
301.016
301.044
301.072
301.1
301.127
301.155
301.181
301.207
300
300.001
300.001
300.002
300.002
300.003
300.003
300.004
300.005
300.006
300.007
300.009
300.01
300.012
300.014
300.016
300.019
300.021
300.025
300.028
300.032
300.036
300.04
300.045
300.05
300.056
300.062
300.069
300.076
300.084
300.092
300.1
300.11
300.12
300.13
300.141
300.153
300.165
300.178
300.192
300.206
300.221
300.236
300.253
300.269
300.287
300.305
300.324
300.343
300.363
300.384
300.405
300.427
300.449
300.472
300.495
300.519
300.543
300.568
300.593
300.618
300.644
300.67
300.696
300.723
300.75
300.776
300.803
300.83
300.857
300.884
300.91
300.937
300.963
300.989
301.015
301.04
301.065
301.09
301.115
301.138
300
300.001
300.001
300.002
300.002
300.003
300.003
300.004
300.005
300.006
300.007
300.009
300.01
300.012
300.014
300.016
300.018
300.021
300.024
300.027
300.031
300.035
300.039
300.044
300.049
300.055
300.061
300.067
300.074
300.081
300.089
300.098
300.107
300.117
300.127
300.137
300.149
300.161
300.173
300.186
300.2
300.214
300.229
300.245
300.261
300.278
300.295
300.313
300.331
300.35
300.37
300.39
300.411
300.432
300.453
300.475
300.498
300.52
300.543
300.567
300.591
300.615
300.639
300.663
300.688
300.713
300.737
300.762
300.787
300.811
300.836
300.86
300.885
300.909
300.932
300.956
300.979
301.002
301.025
301.047
301.069
300
300.001
300.001
300.001
300.002
300.003
300.003
300.004
300.005
300.006
300.007
300.008
300.01
300.012
300.013
300.016
300.018
300.02
300.023
300.027
300.03
300.034
300.038
300.043
300.048
300.053
300.059
300.065
300.072
300.079
300.087
300.095
300.104
300.113
300.123
300.133
300.144
300.155
300.167
300.18
300.193
300.207
300.221
300.236
300.251
300.267
300.284
300.301
300.318
300.336
300.354
300.373
300.393
300.413
300.433
300.453
300.474
300.496
300.517
300.539
300.561
300.583
300.606
300.628
300.651
300.673
300.696
300.719
300.742
300.764
300.786
300.809
300.831
300.853
300.875
300.896
300.917
300.938
300.959
300.979
300.999
300
300.001
300.001
300.001
300.002
300.003
300.003
300.004
300.005
300.006
300.007
300.008
300.01
300.011
300.013
300.015
300.017
300.02
300.023
300.026
300.029
300.033
300.037
300.041
300.046
300.051
300.057
300.063
300.069
300.076
300.084
300.092
300.1
300.109
300.118
300.128
300.139
300.149
300.161
300.173
300.185
300.198
300.212
300.226
300.24
300.255
300.271
300.287
300.303
300.32
300.338
300.355
300.374
300.392
300.411
300.43
300.449
300.469
300.489
300.509
300.53
300.55
300.571
300.591
300.612
300.633
300.653
300.674
300.695
300.715
300.736
300.756
300.776
300.796
300.816
300.835
300.854
300.873
300.892
300.91
300.928
300
300.001
300.001
300.001
300.002
300.002
300.003
300.004
300.005
300.006
300.007
300.008
300.009
300.011
300.013
300.015
300.017
300.019
300.022
300.025
300.028
300.032
300.036
300.04
300.044
300.049
300.055
300.061
300.067
300.073
300.08
300.088
300.096
300.104
300.113
300.123
300.133
300.143
300.154
300.165
300.177
300.189
300.202
300.215
300.229
300.243
300.257
300.272
300.288
300.303
300.32
300.336
300.353
300.37
300.387
300.405
300.423
300.441
300.459
300.478
300.497
300.515
300.534
300.553
300.572
300.591
300.609
300.628
300.647
300.665
300.684
300.702
300.72
300.738
300.756
300.773
300.791
300.808
300.825
300.841
300.857
300
300.001
300.001
300.001
300.002
300.002
300.003
300.004
300.004
300.005
300.006
300.008
300.009
300.01
300.012
300.014
300.016
300.018
300.021
300.024
300.027
300.03
300.034
300.038
300.043
300.047
300.052
300.058
300.064
300.07
300.077
300.084
300.091
300.099
300.108
300.117
300.126
300.136
300.146
300.157
300.168
300.179
300.191
300.203
300.216
300.229
300.243
300.257
300.271
300.285
300.3
300.315
300.331
300.347
300.363
300.379
300.395
300.412
300.428
300.445
300.462
300.479
300.496
300.513
300.53
300.547
300.564
300.581
300.598
300.615
300.631
300.648
300.664
300.68
300.696
300.712
300.727
300.742
300.757
300.772
300.787
300
300.001
300.001
300.001
300.002
300.002
300.003
300.004
300.004
300.005
300.006
300.007
300.009
300.01
300.012
300.013
300.015
300.018
300.02
300.023
300.026
300.029
300.033
300.036
300.041
300.045
300.05
300.055
300.061
300.066
300.073
300.079
300.087
300.094
300.102
300.11
300.119
300.128
300.137
300.147
300.158
300.168
300.179
300.191
300.202
300.215
300.227
300.24
300.253
300.266
300.28
300.294
300.308
300.322
300.337
300.351
300.366
300.381
300.396
300.411
300.427
300.442
300.457
300.472
300.488
300.503
300.518
300.533
300.548
300.563
300.578
300.593
300.607
300.622
300.636
300.65
300.664
300.677
300.691
300.704
300.717
300
300
300.001
300.001
300.002
300.002
300.003
300.003
300.004
300.005
300.006
300.007
300.008
300.009
300.011
300.013
300.015
300.017
300.019
300.022
300.024
300.027
300.031
300.034
300.038
300.042
300.047
300.052
300.057
300.063
300.068
300.075
300.081
300.088
300.095
300.103
300.111
300.12
300.128
300.137
300.147
300.157
300.167
300.177
300.188
300.199
300.21
300.222
300.234
300.246
300.258
300.271
300.284
300.297
300.31
300.323
300.336
300.35
300.363
300.377
300.39
300.404
300.418
300.431
300.445
300.458
300.472
300.485
300.499
300.512
300.525
300.538
300.551
300.564
300.576
300.589
300.601
300.613
300.625
300.636
300.648
300
300
300.001
300.001
300.002
300.002
300.003
300.003
300.004
300.005
300.006
300.007
300.008
300.009
300.01
300.012
300.014
300.016
300.018
300.02
300.023
300.026
300.029
300.032
300.036
300.04
300.044
300.048
300.053
300.058
300.064
300.069
300.075
300.082
300.089
300.096
300.103
300.111
300.119
300.127
300.136
300.144
300.154
300.163
300.173
300.183
300.193
300.204
300.214
300.225
300.236
300.248
300.259
300.27
300.282
300.294
300.306
300.318
300.33
300.342
300.354
300.366
300.378
300.39
300.402
300.414
300.426
300.438
300.449
300.461
300.473
300.484
300.495
300.506
300.518
300.528
300.539
300.55
300.56
300.57
300.58
300
300
300.001
300.001
300.001
300.002
300.002
300.003
300.004
300.004
300.005
300.006
300.007
300.008
300.01
300.011
300.013
300.015
300.017
300.019
300.021
300.024
300.027
300.03
300.033
300.037
300.041
300.045
300.049
300.054
300.059
300.064
300.069
300.075
300.081
300.088
300.094
300.101
300.109
300.116
300.124
300.132
300.14
300.149
300.157
300.166
300.175
300.185
300.194
300.204
300.214
300.224
300.234
300.244
300.254
300.265
300.275
300.286
300.296
300.307
300.317
300.328
300.338
300.349
300.359
300.37
300.38
300.391
300.401
300.411
300.421
300.431
300.441
300.45
300.46
300.47
300.479
300.488
300.497
300.506
300.515
300
300
300.001
300.001
300.001
300.002
300.002
300.003
300.003
300.004
300.005
300.006
300.007
300.008
300.009
300.01
300.012
300.013
300.015
300.017
300.019
300.022
300.024
300.027
300.03
300.034
300.037
300.041
300.045
300.049
300.053
300.058
300.063
300.068
300.074
300.08
300.085
300.092
300.098
300.105
300.112
300.119
300.126
300.134
300.141
300.149
300.157
300.165
300.174
300.182
300.191
300.2
300.208
300.217
300.226
300.235
300.245
300.254
300.263
300.272
300.281
300.29
300.299
300.309
300.318
300.327
300.336
300.345
300.353
300.362
300.371
300.379
300.388
300.396
300.404
300.413
300.421
300.429
300.436
300.444
300.452
300
300
300.001
300.001
300.001
300.002
300.002
300.003
300.003
300.004
300.004
300.005
300.006
300.007
300.008
300.009
300.011
300.012
300.014
300.016
300.018
300.02
300.022
300.025
300.027
300.03
300.033
300.037
300.04
300.044
300.048
300.052
300.057
300.061
300.066
300.071
300.076
300.082
300.088
300.093
300.099
300.106
300.112
300.119
300.125
300.132
300.139
300.146
300.154
300.161
300.168
300.176
300.184
300.191
300.199
300.207
300.215
300.222
300.23
300.238
300.246
300.254
300.262
300.269
300.277
300.285
300.292
300.3
300.308
300.315
300.322
300.33
300.337
300.344
300.351
300.358
300.365
300.372
300.378
300.385
300.391
300
300
300.001
300.001
300.001
300.001
300.002
300.002
300.003
300.003
300.004
300.005
300.005
300.006
300.007
300.008
300.01
300.011
300.012
300.014
300.016
300.018
300.02
300.022
300.024
300.027
300.03
300.033
300.036
300.039
300.043
300.046
300.05
300.054
300.058
300.063
300.067
300.072
300.077
300.082
300.087
300.093
300.098
300.104
300.109
300.115
300.121
300.127
300.134
300.14
300.146
300.153
300.159
300.166
300.172
300.179
300.185
300.192
300.199
300.205
300.212
300.219
300.225
300.232
300.238
300.245
300.251
300.258
300.264
300.27
300.277
300.283
300.289
300.295
300.301
300.307
300.312
300.318
300.324
300.329
300.334
300
300
300.001
300.001
300.001
300.001
300.002
300.002
300.002
300.003
300.003
300.004
300.005
300.006
300.006
300.007
300.008
300.01
300.011
300.012
300.014
300.016
300.017
300.019
300.021
300.024
300.026
300.028
300.031
300.034
300.037
300.04
300.043
300.047
300.051
300.054
300.058
300.062
300.066
300.071
300.075
300.08
300.084
300.089
300.094
300.099
300.104
300.109
300.114
300.12
300.125
300.13
300.136
300.141
300.147
300.152
300.158
300.163
300.169
300.174
300.18
300.185
300.191
300.196
300.202
300.207
300.212
300.218
300.223
300.228
300.233
300.239
300.244
300.249
300.253
300.258
300.263
300.268
300.272
300.277
300.281
300
300
300
300.001
300.001
300.001
300.001
300.002
300.002
300.003
300.003
300.004
300.004
300.005
300.006
300.006
300.007
300.008
300.009
300.011
300.012
300.013
300.015
300.017
300.018
300.02
300.022
300.024
300.027
300.029
300.032
300.034
300.037
300.04
300.043
300.046
300.049
300.053
300.056
300.06
300.064
300.067
300.071
300.075
300.079
300.083
300.088
300.092
300.096
300.1
300.105
300.109
300.114
300.118
300.123
300.127
300.132
300.136
300.141
300.145
300.15
300.154
300.159
300.163
300.168
300.172
300.177
300.181
300.185
300.189
300.194
300.198
300.202
300.206
300.21
300.214
300.218
300.222
300.225
300.229
300.233
300
300
300
300.001
300.001
300.001
300.001
300.001
300.002
300.002
300.003
300.003
300.003
300.004
300.005
300.005
300.006
300.007
300.008
300.009
300.01
300.011
300.013
300.014
300.015
300.017
300.019
300.02
300.022
300.024
300.026
300.029
300.031
300.033
300.036
300.038
300.041
300.044
300.047
300.05
300.053
300.056
300.059
300.062
300.065
300.069
300.072
300.076
300.079
300.083
300.086
300.09
300.093
300.097
300.101
300.104
300.108
300.112
300.115
300.119
300.122
300.126
300.13
300.133
300.137
300.14
300.144
300.147
300.151
300.154
300.158
300.161
300.164
300.167
300.171
300.174
300.177
300.18
300.183
300.186
300.189
300
300
300
300
300.001
300.001
300.001
300.001
300.001
300.002
300.002
300.002
300.003
300.003
300.004
300.004
300.005
300.006
300.007
300.007
300.008
300.009
300.01
300.011
300.013
300.014
300.015
300.017
300.018
300.02
300.022
300.023
300.025
300.027
300.029
300.031
300.033
300.036
300.038
300.04
300.043
300.045
300.048
300.05
300.053
300.056
300.058
300.061
300.064
300.066
300.069
300.072
300.075
300.078
300.081
300.084
300.086
300.089
300.092
300.095
300.098
300.101
300.104
300.106
300.109
300.112
300.115
300.117
300.12
300.123
300.125
300.128
300.131
300.133
300.136
300.138
300.141
300.143
300.145
300.148
300.15
300
300
300
300
300
300.001
300.001
300.001
300.001
300.001
300.002
300.002
300.002
300.003
300.003
300.004
300.004
300.005
300.005
300.006
300.007
300.007
300.008
300.009
300.01
300.011
300.012
300.013
300.015
300.016
300.017
300.019
300.02
300.022
300.023
300.025
300.026
300.028
300.03
300.032
300.034
300.036
300.038
300.04
300.042
300.044
300.046
300.048
300.05
300.052
300.054
300.056
300.059
300.061
300.063
300.065
300.068
300.07
300.072
300.074
300.076
300.078
300.081
300.083
300.085
300.087
300.089
300.091
300.093
300.095
300.097
300.099
300.101
300.103
300.105
300.107
300.109
300.111
300.113
300.115
300.116
300
300
300
300
300
300
300.001
300.001
300.001
300.001
300.001
300.002
300.002
300.002
300.002
300.003
300.003
300.004
300.004
300.005
300.005
300.006
300.006
300.007
300.008
300.009
300.009
300.01
300.011
300.012
300.013
300.014
300.015
300.017
300.018
300.019
300.02
300.022
300.023
300.024
300.026
300.027
300.029
300.03
300.032
300.033
300.035
300.037
300.038
300.04
300.041
300.043
300.045
300.046
300.048
300.05
300.051
300.053
300.055
300.056
300.058
300.06
300.061
300.063
300.064
300.066
300.068
300.069
300.071
300.072
300.074
300.075
300.077
300.078
300.08
300.081
300.082
300.084
300.085
300.087
300.088
300
300
300
300
300
300
300
300.001
300.001
300.001
300.001
300.001
300.001
300.002
300.002
300.002
300.002
300.003
300.003
300.003
300.004
300.004
300.005
300.005
300.006
300.006
300.007
300.008
300.008
300.009
300.01
300.011
300.012
300.012
300.013
300.014
300.015
300.016
300.017
300.018
300.019
300.02
300.021
300.023
300.024
300.025
300.026
300.027
300.028
300.029
300.031
300.032
300.033
300.034
300.036
300.037
300.038
300.039
300.04
300.042
300.043
300.044
300.045
300.046
300.047
300.049
300.05
300.051
300.052
300.053
300.054
300.055
300.056
300.058
300.059
300.06
300.061
300.062
300.063
300.064
300.065
300
300
300
300
300
300
300
300
300
300.001
300.001
300.001
300.001
300.001
300.001
300.001
300.002
300.002
300.002
300.002
300.003
300.003
300.003
300.004
300.004
300.005
300.005
300.006
300.006
300.007
300.007
300.008
300.008
300.009
300.01
300.01
300.011
300.012
300.012
300.013
300.014
300.015
300.016
300.016
300.017
300.018
300.019
300.02
300.02
300.021
300.022
300.023
300.024
300.025
300.026
300.026
300.027
300.028
300.029
300.03
300.031
300.032
300.032
300.033
300.034
300.035
300.036
300.037
300.037
300.038
300.039
300.04
300.041
300.041
300.042
300.043
300.044
300.044
300.045
300.046
300.046
300
300
300
300
300
300
300
300
300
300
300
300.001
300.001
300.001
300.001
300.001
300.001
300.001
300.002
300.002
300.002
300.002
300.002
300.003
300.003
300.003
300.004
300.004
300.004
300.005
300.005
300.006
300.006
300.006
300.007
300.007
300.008
300.008
300.009
300.009
300.01
300.01
300.011
300.012
300.012
300.013
300.013
300.014
300.015
300.015
300.016
300.016
300.017
300.018
300.018
300.019
300.019
300.02
300.021
300.021
300.022
300.022
300.023
300.024
300.024
300.025
300.025
300.026
300.026
300.027
300.028
300.028
300.029
300.029
300.03
300.03
300.031
300.031
300.032
300.032
300.033
300
300
300
300
300
300
300
300
300
300
300
300
300
300.001
300.001
300.001
300.001
300.001
300.001
300.001
300.001
300.002
300.002
300.002
300.002
300.002
300.003
300.003
300.003
300.003
300.004
300.004
300.004
300.005
300.005
300.005
300.006
300.006
300.006
300.007
300.007
300.008
300.008
300.008
300.009
300.009
300.01
300.01
300.011
300.011
300.011
300.012
300.012
300.013
300.013
300.014
300.014
300.014
300.015
300.015
300.016
300.016
300.017
300.017
300.017
300.018
300.018
300.019
300.019
300.02
300.02
300.02
300.021
300.021
300.022
300.022
300.022
300.023
300.023
300.023
300.024
300
300
300
300
300
300
300
300
300
300
300
300
300
300
300
300.001
300.001
300.001
300.001
300.001
300.001
300.001
300.001
300.002
300.002
300.002
300.002
300.002
300.003
300.003
300.003
300.003
300.003
300.004
300.004
300.004
300.005
300.005
300.005
300.005
300.006
300.006
300.006
300.007
300.007
300.007
300.008
300.008
300.008
300.009
300.009
300.009
300.01
300.01
300.011
300.011
300.011
300.012
300.012
300.012
300.013
300.013
300.013
300.014
300.014
300.014
300.015
300.015
300.015
300.016
300.016
300.016
300.017
300.017
300.017
300.018
300.018
300.018
300.018
300.019
300.019
302.231
302.349
302.449
302.536
302.614
302.685
302.748
302.806
302.857
302.901
302.939
302.967
302.981
303.004
303.029
303.056
303.084
303.111
303.137
303.163
303.187
303.21
303.229
303.25
303.272
303.294
303.316
303.337
303.359
303.379
303.399
303.418
303.435
303.453
303.471
303.49
303.508
303.526
303.543
303.56
303.577
303.592
303.607
303.623
303.639
303.654
303.669
303.683
303.697
303.709
303.722
303.735
303.748
303.761
303.774
303.786
303.798
303.81
303.821
303.833
303.844
303.854
303.865
303.874
303.884
303.894
303.903
303.913
303.922
303.931
303.94
303.948
303.956
303.964
303.972
303.98
303.987
303.994
304
304.007
304.013
304.019
304.024
304.03
304.036
304.041
304.046
304.052
304.057
304.061
304.066
304.07
304.074
304.078
304.082
304.085
304.088
304.092
304.095
304.097
304.1
304.103
304.106
304.108
304.11
304.112
304.114
304.116
304.117
304.118
304.119
304.12
304.121
304.122
304.123
304.123
304.124
304.124
304.124
304.124
304.123
304.123
304.122
304.121
304.12
304.119
304.118
304.116
304.114
304.111
304.108
304.105
304.101
304.097
304.093
304.089
304.084
304.078
304.072
304.064
304.056
304.046
304.036
304.024
304.011
303.997
303.98
303.962
303.943
303.917
303.886
303.853
303.817
303.782
303.736
303.684
303.636
303.561
303.493
303.32
303.046
302.167
302.271
302.365
302.45
302.527
302.596
302.659
302.716
302.767
302.812
302.851
302.883
302.908
302.934
302.961
302.989
303.016
303.044
303.071
303.096
303.121
303.144
303.166
303.188
303.21
303.232
303.254
303.276
303.297
303.318
303.338
303.357
303.375
303.394
303.412
303.431
303.449
303.467
303.484
303.501
303.518
303.534
303.55
303.566
303.581
303.596
303.611
303.626
303.639
303.652
303.666
303.679
303.692
303.705
303.717
303.73
303.742
303.754
303.765
303.777
303.788
303.798
303.809
303.819
303.828
303.838
303.848
303.857
303.867
303.876
303.884
303.893
303.901
303.909
303.917
303.924
303.931
303.938
303.945
303.952
303.958
303.964
303.97
303.975
303.981
303.986
303.991
303.997
304.002
304.006
304.011
304.015
304.019
304.023
304.027
304.03
304.033
304.037
304.04
304.042
304.045
304.048
304.05
304.053
304.055
304.057
304.059
304.06
304.062
304.063
304.064
304.065
304.066
304.067
304.068
304.068
304.068
304.069
304.069
304.069
304.068
304.068
304.067
304.066
304.065
304.064
304.063
304.061
304.059
304.056
304.053
304.05
304.046
304.043
304.038
304.034
304.029
304.024
304.017
304.009
304.001
303.992
303.981
303.969
303.956
303.942
303.925
303.907
303.887
303.862
303.831
303.798
303.762
303.725
303.679
303.626
303.574
303.498
303.416
303.243
302.972
302.109
302.201
302.287
302.367
302.441
302.508
302.57
302.627
302.678
302.723
302.764
302.799
302.83
302.859
302.888
302.917
302.945
302.973
303
303.026
303.052
303.076
303.099
303.121
303.144
303.167
303.189
303.211
303.232
303.253
303.274
303.293
303.312
303.331
303.35
303.368
303.386
303.404
303.422
303.439
303.456
303.472
303.488
303.504
303.52
303.535
303.55
303.565
303.579
303.592
303.606
303.619
303.632
303.645
303.658
303.67
303.682
303.694
303.706
303.717
303.728
303.739
303.75
303.76
303.77
303.779
303.789
303.798
303.808
303.817
303.826
303.834
303.842
303.85
303.858
303.866
303.873
303.88
303.887
303.893
303.899
303.905
303.911
303.917
303.922
303.928
303.933
303.938
303.943
303.948
303.952
303.957
303.961
303.964
303.968
303.972
303.975
303.978
303.981
303.984