/*--------------------------------*- C++ -*----------------------------------*\
| =========                 |                                                 |
| \\      /  F ield         | OpenFOAM: The Open Source CFD Toolbox           |
|  \\    /   O peration     | Version:  4.1                                   |
|   \\  /    A nd           | Web:      www.OpenFOAM.org                      |
|    \\/     M anipulation  |                                                 |
\*---------------------------------------------------------------------------*/
FoamFile
{
    version     2.0;
    format      ascii;
    class       volVectorField;
    location    "1";
    object      U;
}
// * * * * * * * * * * * * * * * * * * * * * * * * * * * * * * * * * * * * * //

dimensions      [0 1 -1 0 0 0 0];

internalField   nonuniform List<vector> 
12013
(
(0.100006 -1.48529e-06 0)
(0.100027 -2.41796e-06 0)
(0.100056 -2.69245e-06 0)
(0.100083 -2.18157e-06 0)
(0.1001 -9.17412e-07 0)
(0.100102 9.27097e-07 0)
(0.100084 3.0537e-06 0)
(0.100046 5.11933e-06 0)
(0.0999915 6.83224e-06 0)
(0.0999247 8.01873e-06 0)
(0.0998515 8.64004e-06 0)
(0.0997769 8.76491e-06 0)
(0.0997048 8.52186e-06 0)
(0.0996375 8.04997e-06 0)
(0.0995763 7.46686e-06 0)
(0.0995214 6.85372e-06 0)
(0.0994726 6.25488e-06 0)
(0.0994295 5.68628e-06 0)
(0.0993917 5.14518e-06 0)
(0.0993589 4.62002e-06 0)
(0.0993307 4.09603e-06 0)
(0.0993072 3.56077e-06 0)
(0.0992883 3.00322e-06 0)
(0.0992739 2.41757e-06 0)
(0.0992642 1.79878e-06 0)
(0.0992592 1.14611e-06 0)
(0.099259 4.57942e-07 0)
(0.0992637 -2.63839e-07 0)
(0.0992732 -1.01874e-06 0)
(0.0992876 -1.8037e-06 0)
(0.0993069 -2.61709e-06 0)
(0.099331 -3.45556e-06 0)
(0.0993599 -4.3157e-06 0)
(0.0993936 -5.19305e-06 0)
(0.0994319 -6.08321e-06 0)
(0.0994748 -6.97988e-06 0)
(0.099522 -7.8762e-06 0)
(0.0995734 -8.76396e-06 0)
(0.0996287 -9.63387e-06 0)
(0.0996877 -1.04757e-05 0)
(0.0997501 -1.12761e-05 0)
(0.0998154 -1.20213e-05 0)
(0.0998834 -1.26951e-05 0)
(0.0999535 -1.32792e-05 0)
(0.100025 -1.37531e-05 0)
(0.100098 -1.40935e-05 0)
(0.100171 -1.42739e-05 0)
(0.100243 -1.4265e-05 0)
(0.100315 -1.40326e-05 0)
(0.100384 -1.35394e-05 0)
(0.10045 -1.27408e-05 0)
(0.100511 -1.15874e-05 0)
(0.100567 -1.00218e-05 0)
(0.100616 -7.97757e-06 0)
(0.100657 -5.37662e-06 0)
(0.100687 -2.12883e-06 0)
(0.100704 1.87525e-06 0)
(0.100707 6.76325e-06 0)
(0.100693 1.26897e-05 0)
(0.100659 1.98416e-05 0)
(0.100601 2.84481e-05 0)
(0.100515 3.8792e-05 0)
(0.100397 5.12266e-05 0)
(0.100242 6.61991e-05 0)
(0.100042 8.42803e-05 0)
(0.0997897 0.000106211 0)
(0.0994752 0.000132966 0)
(0.0990862 0.000165851 0)
(0.0986074 0.000206641 0)
(0.098019 0.000257802 0)
(0.0972951 0.000322834 0)
(0.0964015 0.000406807 0)
(0.0952915 0.000517256 0)
(0.0939001 0.00066565 0)
(0.0921352 0.000869902 0)
(0.089863 0.0011587 0)
(0.0868842 0.00157914 0)
(0.0828815 0.00221273 0)
(0.0773566 0.00322505 0)
(0.0697092 0.00508075 0)
(0.0610854 0.0098764 0)
(0.100006 -4.55354e-06 0)
(0.100027 -7.43355e-06 0)
(0.100056 -8.28559e-06 0)
(0.100083 -6.72556e-06 0)
(0.100101 -2.85203e-06 0)
(0.100103 2.80491e-06 0)
(0.100085 9.3321e-06 0)
(0.100048 1.56757e-05 0)
(0.0999936 2.09393e-05 0)
(0.0999271 2.45889e-05 0)
(0.0998541 2.65047e-05 0)
(0.0997796 2.68968e-05 0)
(0.0997075 2.61585e-05 0)
(0.0996402 2.4716e-05 0)
(0.0995789 2.2931e-05 0)
(0.0995238 2.10526e-05 0)
(0.0994749 1.92179e-05 0)
(0.0994316 1.7475e-05 0)
(0.0993936 1.58167e-05 0)
(0.0993605 1.4207e-05 0)
(0.099332 1.26018e-05 0)
(0.0993082 1.09616e-05 0)
(0.0992889 9.25485e-06 0)
(0.0992742 7.46127e-06 0)
(0.0992642 5.56797e-06 0)
(0.0992588 3.56963e-06 0)
(0.0992581 1.46496e-06 0)
(0.0992622 -7.43724e-07 0)
(0.0992712 -3.0517e-06 0)
(0.099285 -5.45239e-06 0)
(0.0993036 -7.93915e-06 0)
(0.099327 -1.05024e-05 0)
(0.0993551 -1.3131e-05 0)
(0.0993879 -1.58114e-05 0)
(0.0994253 -1.85295e-05 0)
(0.0994672 -2.12672e-05 0)
(0.0995133 -2.40029e-05 0)
(0.0995636 -2.67118e-05 0)
(0.0996177 -2.93648e-05 0)
(0.0996754 -3.19294e-05 0)
(0.0997364 -3.43666e-05 0)
(0.0998003 -3.66336e-05 0)
(0.0998668 -3.86806e-05 0)
(0.0999352 -4.04517e-05 0)
(0.100005 -4.18839e-05 0)
(0.100076 -4.29053e-05 0)
(0.100147 -4.34355e-05 0)
(0.100218 -4.33842e-05 0)
(0.100287 -4.26483e-05 0)
(0.100354 -4.1111e-05 0)
(0.100418 -3.86386e-05 0)
(0.100478 -3.50789e-05 0)
(0.100532 -3.02566e-05 0)
(0.100578 -2.39686e-05 0)
(0.100617 -1.59781e-05 0)
(0.100645 -6.00745e-06 0)
(0.10066 6.27283e-06 0)
(0.100661 2.12531e-05 0)
(0.100645 3.94012e-05 0)
(0.100609 6.12842e-05 0)
(0.10055 8.75949e-05 0)
(0.100464 0.000119188 0)
(0.100346 0.000157128 0)
(0.100191 0.000202756 0)
(0.0999936 0.000257784 0)
(0.0997451 0.000324419 0)
(0.0994367 0.000405557 0)
(0.0990571 0.000505048 0)
(0.0985924 0.000628095 0)
(0.0980248 0.000781867 0)
(0.0973318 0.000976414 0)
(0.0964842 0.00122612 0)
(0.0954437 0.00155195 0)
(0.0941598 0.00198513 0)
(0.0925647 0.0025729 0)
(0.0905691 0.00338762 0)
(0.0880558 0.00454017 0)
(0.0848704 0.00619862 0)
(0.0808394 0.0086134 0)
(0.0760145 0.0120842 0)
(0.0718023 0.016496 0)
(0.100005 -7.8027e-06 0)
(0.100026 -1.28188e-05 0)
(0.100056 -1.43167e-05 0)
(0.100083 -1.16675e-05 0)
(0.100102 -5.036e-06 0)
(0.100105 4.67119e-06 0)
(0.100088 1.58903e-05 0)
(0.100051 2.68108e-05 0)
(0.099998 3.5889e-05 0)
(0.0999323 4.22024e-05 0)
(0.0998599 4.55386e-05 0)
(0.0997858 4.62546e-05 0)
(0.0997139 4.50208e-05 0)
(0.0996466 4.25699e-05 0)
(0.0995851 3.95222e-05 0)
(0.0995298 3.6308e-05 0)
(0.0994805 3.31648e-05 0)
(0.0994368 3.01772e-05 0)
(0.0993984 2.73336e-05 0)
(0.0993649 2.45738e-05 0)
(0.099336 2.18235e-05 0)
(0.0993116 1.90145e-05 0)
(0.0992918 1.60942e-05 0)
(0.0992765 1.30267e-05 0)
(0.0992657 9.79117e-06 0)
(0.0992596 6.37697e-06 0)
(0.0992581 2.78362e-06 0)
(0.0992613 -9.8576e-07 0)
(0.0992692 -4.9224e-06 0)
(0.0992819 -9.01607e-06 0)
(0.0992993 -1.32539e-05 0)
(0.0993213 -1.76197e-05 0)
(0.099348 -2.20944e-05 0)
(0.0993793 -2.66555e-05 0)
(0.0994149 -3.12768e-05 0)
(0.099455 -3.59276e-05 0)
(0.0994991 -4.05713e-05 0)
(0.0995472 -4.51649e-05 0)
(0.099599 -4.96586e-05 0)
(0.0996543 -5.39959e-05 0)
(0.0997127 -5.81107e-05 0)
(0.0997739 -6.19282e-05 0)
(0.0998374 -6.53639e-05 0)
(0.0999028 -6.83219e-05 0)
(0.0999695 -7.06936e-05 0)
(0.100037 -7.23565e-05 0)
(0.100105 -7.31733e-05 0)
(0.100172 -7.29884e-05 0)
(0.100237 -7.16266e-05 0)
(0.1003 -6.88875e-05 0)
(0.10036 -6.45446e-05 0)
(0.100415 -5.8338e-05 0)
(0.100465 -4.99692e-05 0)
(0.100507 -3.9093e-05 0)
(0.100541 -2.53081e-05 0)
(0.100565 -8.14292e-06 0)
(0.100576 1.29571e-05 0)
(0.100573 3.86492e-05 0)
(0.100554 6.972e-05 0)
(0.100515 0.000107119 0)
(0.100453 0.000152004 0)
(0.100365 0.000205793 0)
(0.100246 0.00027025 0)
(0.100093 0.000347579 0)
(0.0998978 0.000440575 0)
(0.0996553 0.000552819 0)
(0.0993569 0.000688956 0)
(0.098993 0.000855094 0)
(0.0985519 0.00105937 0)
(0.0980193 0.00131281 0)
(0.0973779 0.00163052 0)
(0.0966063 0.00203353 0)
(0.095679 0.00255148 0)
(0.0945654 0.0032265 0)
(0.0932308 0.00411869 0)
(0.0916397 0.00531286 0)
(0.0897646 0.0069246 0)
(0.0876038 0.00909922 0)
(0.0852271 0.0119877 0)
(0.0829157 0.0156196 0)
(0.0814317 0.019376 0)
(0.100005 -1.12294e-05 0)
(0.100026 -1.85921e-05 0)
(0.100055 -2.08205e-05 0)
(0.100084 -1.70715e-05 0)
(0.100103 -7.56225e-06 0)
(0.100107 6.4113e-06 0)
(0.100092 2.26025e-05 0)
(0.100057 3.84039e-05 0)
(0.100005 5.15827e-05 0)
(0.0999407 6.07957e-05 0)
(0.0998695 6.57205e-05 0)
(0.0997961 6.68587e-05 0)
(0.0997246 6.51675e-05 0)
(0.0996574 6.16995e-05 0)
(0.0995958 5.73499e-05 0)
(0.0995402 5.27428e-05 0)
(0.0994905 4.82248e-05 0)
(0.0994463 4.39251e-05 0)
(0.0994073 3.98297e-05 0)
(0.0993732 3.58557e-05 0)
(0.0993437 3.1898e-05 0)
(0.0993187 2.78598e-05 0)
(0.0992981 2.36665e-05 0)
(0.099282 1.92667e-05 0)
(0.0992703 1.46301e-05 0)
(0.0992631 9.74245e-06 0)
(0.0992605 4.60149e-06 0)
(0.0992625 -7.86319e-07 0)
(0.0992691 -6.40984e-06 0)
(0.0992802 -1.22531e-05 0)
(0.0992959 -1.82972e-05 0)
(0.0993162 -2.45187e-05 0)
(0.0993409 -3.08897e-05 0)
(0.0993699 -3.73782e-05 0)
(0.0994032 -4.39455e-05 0)
(0.0994407 -5.05463e-05 0)
(0.099482 -5.71282e-05 0)
(0.0995271 -6.36283e-05 0)
(0.0995757 -6.99757e-05 0)
(0.0996276 -7.60875e-05 0)
(0.0996823 -8.18689e-05 0)
(0.0997396 -8.72118e-05 0)
(0.0997989 -9.19943e-05 0)
(0.09986 -9.60784e-05 0)
(0.0999221 -9.93078e-05 0)
(0.0999847 -0.000101507 0)
(0.100047 -0.000102479 0)
(0.100109 -0.000101999 0)
(0.100169 -9.98183e-05 0)
(0.100226 -9.56497e-05 0)
(0.10028 -8.91693e-05 0)
(0.10033 -8.00075e-05 0)
(0.100373 -6.77392e-05 0)
(0.10041 -5.18747e-05 0)
(0.100438 -3.18451e-05 0)
(0.100455 -6.98556e-06 0)
(0.100461 2.34841e-05 0)
(0.100453 6.04839e-05 0)
(0.100428 0.000105113 0)
(0.100385 0.000158689 0)
(0.100319 0.000222814 0)
(0.100229 0.000299435 0)
(0.100111 0.000390956 0)
(0.0999588 0.000500359 0)
(0.0997693 0.000631386 0)
(0.0995363 0.000788774 0)
(0.0992533 0.000978583 0)
(0.0989129 0.00120865 0)
(0.0985062 0.00148921 0)
(0.0980235 0.00183375 0)
(0.0974537 0.00226025 0)
(0.0967849 0.00279278 0)
(0.0960051 0.00346368 0)
(0.0951041 0.00431622 0)
(0.094077 0.0054074 0)
(0.092931 0.00680942 0)
(0.0916974 0.00860598 0)
(0.0904492 0.0108746 0)
(0.0893275 0.0136381 0)
(0.0885704 0.0167424 0)
(0.0884795 0.019581 0)
(0.100005 -1.48548e-05 0)
(0.100026 -2.47808e-05 0)
(0.100055 -2.78513e-05 0)
(0.100084 -2.30286e-05 0)
(0.100104 -1.05625e-05 0)
(0.10011 7.85651e-06 0)
(0.100097 2.92784e-05 0)
(0.100064 5.02633e-05 0)
(0.100015 6.78502e-05 0)
(0.0999529 8.02385e-05 0)
(0.0998833 8.69719e-05 0)
(0.0998112 8.86843e-05 0)
(0.0997404 8.66216e-05 0)
(0.0996735 8.21659e-05 0)
(0.0996118 7.65023e-05 0)
(0.0995558 7.04608e-05 0)
(0.0995056 6.4511e-05 0)
(0.0994609 5.88327e-05 0)
(0.0994212 5.34186e-05 0)
(0.0993864 4.81641e-05 0)
(0.0993562 4.29363e-05 0)
(0.0993304 3.76096e-05 0)
(0.0993089 3.20871e-05 0)
(0.0992919 2.63018e-05 0)
(0.0992792 2.02134e-05 0)
(0.0992708 1.38042e-05 0)
(0.0992669 7.07058e-06 0)
(0.0992675 2.11712e-08 0)
(0.0992724 -7.32851e-06 0)
(0.0992817 -1.49576e-05 0)
(0.0992954 -2.28399e-05 0)
(0.0993135 -3.09446e-05 0)
(0.0993357 -3.92339e-05 0)
(0.0993621 -4.76642e-05 0)
(0.0993925 -5.61847e-05 0)
(0.0994268 -6.47347e-05 0)
(0.0994647 -7.3243e-05 0)
(0.0995062 -8.16273e-05 0)
(0.0995508 -8.97925e-05 0)
(0.0995984 -9.76282e-05 0)
(0.0996485 -0.00010501 0)
(0.099701 -0.000111794 0)
(0.0997552 -0.000117819 0)
(0.0998108 -0.000122904 0)
(0.0998672 -0.000126842 0)
(0.0999238 -0.000129403 0)
(0.09998 -0.000130326 0)
(0.100035 -0.00012932 0)
(0.100088 -0.000126055 0)
(0.100139 -0.000120159 0)
(0.100186 -0.000111208 0)
(0.100228 -9.8723e-05 0)
(0.100264 -8.21507e-05 0)
(0.100293 -6.0859e-05 0)
(0.100313 -3.41143e-05 0)
(0.100324 -1.06349e-06 0)
(0.100323 3.92881e-05 0)
(0.100308 8.811e-05 0)
(0.100278 0.00014679 0)
(0.10023 0.000216987 0)
(0.100161 0.000300691 0)
(0.10007 0.000400312 0)
(0.0999518 0.000518789 0)
(0.0998042 0.000659729 0)
(0.099623 0.000827595 0)
(0.0994039 0.00102795 0)
(0.0991424 0.00126778 0)
(0.0988333 0.00155592 0)
(0.0984715 0.0019036 0)
(0.0980518 0.00232515 0)
(0.0975696 0.00283895 0)
(0.0970219 0.00346846 0)
(0.0964086 0.0042434 0)
(0.0957353 0.00520073 0)
(0.0950173 0.00638458 0)
(0.0942857 0.00784363 0)
(0.0935952 0.00962237 0)
(0.0930326 0.0117401 0)
(0.092721 0.0141491 0)
(0.0928045 0.0166611 0)
(0.0933727 0.0188518 0)
(0.100005 -1.86961e-05 0)
(0.100026 -3.14147e-05 0)
(0.100055 -3.54727e-05 0)
(0.100085 -2.96462e-05 0)
(0.100106 -1.41968e-05 0)
(0.100114 8.79777e-06 0)
(0.100104 3.56752e-05 0)
(0.100074 6.21389e-05 0)
(0.100028 8.44622e-05 0)
(0.0999689 0.000100347 0)
(0.0999018 0.000109169 0)
(0.0998314 0.000111672 0)
(0.0997616 0.000109383 0)
(0.0996951 0.000104017 0)
(0.0996334 9.70597e-05 0)
(0.0995772 8.95636e-05 0)
(0.0995265 8.21345e-05 0)
(0.0994811 7.50157e-05 0)
(0.0994408 6.82142e-05 0)
(0.0994053 6.16115e-05 0)
(0.0993742 5.50483e-05 0)
(0.0993476 4.83737e-05 0)
(0.0993253 4.14681e-05 0)
(0.0993072 3.42488e-05 0)
(0.0992934 2.66663e-05 0)
(0.0992838 1.86978e-05 0)
(0.0992785 1.03397e-05 0)
(0.0992774 1.60232e-06 0)
(0.0992805 -7.49409e-06 0)
(0.0992879 -1.69231e-05 0)
(0.0992993 -2.66512e-05 0)
(0.0993149 -3.6638e-05 0)
(0.0993344 -4.68363e-05 0)
(0.0993577 -5.71897e-05 0)
(0.0993849 -6.76327e-05 0)
(0.0994155 -7.80889e-05 0)
(0.0994496 -8.84675e-05 0)
(0.0994867 -9.86648e-05 0)
(0.0995268 -0.00010856 0)
(0.0995695 -0.000118015 0)
(0.0996144 -0.000126871 0)
(0.0996612 -0.000134951 0)
(0.0997095 -0.000142051 0)
(0.0997588 -0.000147944 0)
(0.0998086 -0.000152373 0)
(0.0998583 -0.00015505 0)
(0.0999072 -0.000155653 0)
(0.0999548 -0.00015382 0)
(0.1 -0.000149142 0)
(0.100043 -0.000141161 0)
(0.100081 -0.000129354 0)
(0.100115 -0.000113134 0)
(0.100143 -9.18264e-05 0)
(0.100164 -6.46606e-05 0)
(0.100176 -3.07483e-05 0)
(0.100179 1.09373e-05 0)
(0.10017 6.15844e-05 0)
(0.100149 0.000122585 0)
(0.100113 0.000195577 0)
(0.10006 0.000282502 0)
(0.0999893 0.000385665 0)
(0.0998975 0.000507828 0)
(0.0997825 0.000652314 0)
(0.0996417 0.000823142 0)
(0.0994725 0.0010252 0)
(0.0992721 0.00126446 0)
(0.0990379 0.00154825 0)
(0.0987674 0.00188556 0)
(0.0984589 0.00228747 0)
(0.0981115 0.00276759 0)
(0.0977262 0.00334253 0)
(0.0973069 0.00403234 0)
(0.0968619 0.00486071 0)
(0.0964064 0.00585454 0)
(0.0959655 0.00704217 0)
(0.0955774 0.00844917 0)
(0.0952969 0.0100894 0)
(0.0951964 0.0119488 0)
(0.0953591 0.0139599 0)
(0.0958567 0.0159688 0)
(0.0966963 0.0177129 0)
(0.100005 -2.27682e-05 0)
(0.100026 -3.8526e-05 0)
(0.100055 -4.37535e-05 0)
(0.100085 -3.70454e-05 0)
(0.100109 -1.86496e-05 0)
(0.100119 8.98896e-06 0)
(0.100112 4.15019e-05 0)
(0.100087 7.3724e-05 0)
(0.100044 0.000101131 0)
(0.0999888 0.000120881 0)
(0.0999247 0.000132138 0)
(0.0998565 0.000135722 0)
(0.0997882 0.00013342 0)
(0.0997225 0.000127278 0)
(0.099661 0.000119089 0)
(0.0996046 0.000110144 0)
(0.0995534 0.000101201 0)
(0.0995074 9.25844e-05 0)
(0.0994664 8.43266e-05 0)
(0.0994302 7.63049e-05 0)
(0.0993984 6.83392e-05 0)
(0.0993709 6.02556e-05 0)
(0.0993477 5.19144e-05 0)
(0.0993286 4.32172e-05 0)
(0.0993136 3.41055e-05 0)
(0.0993028 2.4551e-05 0)
(0.099296 1.45503e-05 0)
(0.0992932 4.11536e-06 0)
(0.0992944 -6.72918e-06 0)
(0.0992996 -1.79496e-05 0)
(0.0993087 -2.95043e-05 0)
(0.0993216 -4.13436e-05 0)
(0.0993381 -5.34084e-05 0)
(0.0993582 -6.56293e-05 0)
(0.0993817 -7.79253e-05 0)
(0.0994085 -9.02018e-05 0)
(0.0994382 -0.000102348 0)
(0.0994708 -0.000114237 0)
(0.0995058 -0.000125721 0)
(0.0995431 -0.000136632 0)
(0.0995823 -0.000146779 0)
(0.0996229 -0.000155946 0)
(0.0996647 -0.000163889 0)
(0.099707 -0.000170332 0)
(0.0997495 -0.000174968 0)
(0.0997916 -0.000177453 0)
(0.0998326 -0.0001774 0)
(0.099872 -0.000174379 0)
(0.0999089 -0.000167905 0)
(0.0999426 -0.000157433 0)
(0.0999723 -0.000142352 0)
(0.0999971 -0.000121967 0)
(0.100016 -9.54935e-05 0)
(0.100028 -6.20345e-05 0)
(0.100032 -2.05645e-05 0)
(0.100027 3.00919e-05 0)
(0.100011 9.12854e-05 0)
(0.099983 0.000164588 0)
(0.099942 0.000251832 0)
(0.0998862 0.000355161 0)
(0.0998139 0.000477094 0)
(0.0997237 0.000620601 0)
(0.0996139 0.000789203 0)
(0.0994829 0.000987077 0)
(0.0993293 0.0012192 0)
(0.0991519 0.00149149 0)
(0.09895 0.00181103 0)
(0.0987235 0.00218619 0)
(0.0984735 0.00262691 0)
(0.0982026 0.00314483 0)
(0.0979158 0.00375338 0)
(0.0976214 0.00446768 0)
(0.0973323 0.00530412 0)
(0.0970672 0.00627916 0)
(0.0968528 0.00740716 0)
(0.0967242 0.00869634 0)
(0.096726 0.0101422 0)
(0.0969085 0.0117176 0)
(0.0973203 0.0133606 0)
(0.0979908 0.014963 0)
(0.0989022 0.0163709 0)
(0.100005 -2.70851e-05 0)
(0.100025 -4.61472e-05 0)
(0.100055 -5.27662e-05 0)
(0.100086 -4.53558e-05 0)
(0.100111 -2.41224e-05 0)
(0.100124 8.15583e-06 0)
(0.100121 4.64287e-05 0)
(0.100101 8.46642e-05 0)
(0.100063 0.000117512 0)
(0.100012 0.000141544 0)
(0.0999516 0.000155653 0)
(0.0998863 0.000160687 0)
(0.0998199 0.000158662 0)
(0.0997553 0.000151942 0)
(0.0996942 0.000142631 0)
(0.0996377 0.000132274 0)
(0.0995862 0.000121802 0)
(0.0995397 0.000111637 0)
(0.0994981 0.000101856 0)
(0.0994611 9.23419e-05 0)
(0.0994286 8.29042e-05 0)
(0.0994003 7.33504e-05 0)
(0.0993762 6.3522e-05 0)
(0.0993562 5.33075e-05 0)
(0.0993401 4.26383e-05 0)
(0.0993279 3.14822e-05 0)
(0.0993196 1.98341e-05 0)
(0.0993152 7.70916e-06 0)
(0.0993145 -4.86369e-06 0)
(0.0993175 -1.78431e-05 0)
(0.0993241 -3.11784e-05 0)
(0.0993342 -4.48103e-05 0)
(0.0993476 -5.86659e-05 0)
(0.0993643 -7.26615e-05 0)
(0.099384 -8.66999e-05 0)
(0.0994066 -0.000100667 0)
(0.0994318 -0.00011443 0)
(0.0994594 -0.000127838 0)
(0.0994891 -0.000140716 0)
(0.0995207 -0.000152865 0)
(0.0995537 -0.00016406 0)
(0.0995878 -0.000174045 0)
(0.0996226 -0.000182536 0)
(0.0996576 -0.00018921 0)
(0.0996924 -0.000193709 0)
(0.0997264 -0.000195634 0)
(0.099759 -0.000194537 0)
(0.0997897 -0.00018992 0)
(0.0998177 -0.000181227 0)
(0.0998424 -0.000167836 0)
(0.0998629 -0.000149048 0)
(0.0998786 -0.00012408 0)
(0.0998884 -9.20463e-05 0)
(0.0998916 -5.19449e-05 0)
(0.0998872 -2.63898e-06 0)
(0.0998742 5.7159e-05 0)
(0.0998515 0.000128924 0)
(0.0998182 0.000214351 0)
(0.0997731 0.00031539 0)
(0.0997152 0.000434292 0)
(0.0996435 0.000573663 0)
(0.099557 0.000736525 0)
(0.0994549 0.000926384 0)
(0.0993367 0.00114731 0)
(0.099202 0.00140404 0)
(0.099051 0.00170202 0)
(0.0988847 0.00204756 0)
(0.0987049 0.00244783 0)
(0.0985148 0.00291092 0)
(0.0983193 0.00344582 0)
(0.0981256 0.00406217 0)
(0.097944 0.00476991 0)
(0.0977886 0.00557853 0)
(0.0976775 0.00649586 0)
(0.097634 0.00752606 0)
(0.0976861 0.0086668 0)
(0.0978651 0.00990522 0)
(0.0982023 0.0112131 0)
(0.098723 0.012542 0)
(0.0994357 0.0138214 0)
(0.10032 0.0149635 0)
(0.100004 -3.16594e-05 0)
(0.100025 -5.43091e-05 0)
(0.100055 -6.25811e-05 0)
(0.100087 -5.47055e-05 0)
(0.100114 -3.08194e-05 0)
(0.10013 6.01511e-06 0)
(0.100131 5.01075e-05 0)
(0.100116 9.45757e-05 0)
(0.100084 0.000133228 0)
(0.100038 0.000161995 0)
(0.0999816 0.000179439 0)
(0.0999198 0.000186371 0)
(0.0998558 0.000184993 0)
(0.0997926 0.000177962 0)
(0.0997323 0.000167694 0)
(0.0996759 0.000156001 0)
(0.0996243 0.000144006 0)
(0.0995774 0.000132255 0)
(0.0995353 0.000120888 0)
(0.0994977 0.00010981 0)
(0.0994645 9.88298e-05 0)
(0.0994355 8.77443e-05 0)
(0.0994106 7.63803e-05 0)
(0.0993896 6.46141e-05 0)
(0.0993724 5.23681e-05 0)
(0.099359 3.96056e-05 0)
(0.0993492 2.63208e-05 0)
(0.0993431 1.25311e-05 0)
(0.0993404 -1.72843e-06 0)
(0.0993412 -1.64096e-05 0)
(0.0993452 -3.14516e-05 0)
(0.0993524 -4.67843e-05 0)
(0.0993627 -6.23203e-05 0)
(0.0993758 -7.796e-05 0)
(0.0993916 -9.3589e-05 0)
(0.0994098 -0.000109072 0)
(0.0994303 -0.000124255 0)
(0.0994528 -0.000138959 0)
(0.099477 -0.000152983 0)
(0.0995026 -0.000166097 0)
(0.0995292 -0.00017804 0)
(0.0995565 -0.000188519 0)
(0.0995841 -0.000197207 0)
(0.0996115 -0.000203738 0)
(0.0996383 -0.000207705 0)
(0.099664 -0.000208655 0)
(0.0996881 -0.000206084 0)
(0.0997099 -0.000199434 0)
(0.0997289 -0.000188084 0)
(0.0997444 -0.000171341 0)
(0.0997558 -0.000148437 0)
(0.0997624 -0.00011851 0)
(0.0997635 -8.05986e-05 0)
(0.0997583 -3.36205e-05 0)
(0.099746 2.36356e-05 0)
(0.099726 9.25308e-05 0)
(0.0996975 0.000174609 0)
(0.0996597 0.000271621 0)
(0.0996119 0.000385549 0)
(0.0995537 0.000518644 0)
(0.0994844 0.000673466 0)
(0.0994038 0.00085292 0)
(0.0993118 0.0010603 0)
(0.0992087 0.00129933 0)
(0.0990953 0.0015742 0)
(0.0989728 0.00188958 0)
(0.0988433 0.00225063 0)
(0.0987101 0.00266296 0)
(0.0985775 0.00313254 0)
(0.0984516 0.0036655 0)
(0.0983404 0.00426784 0)
(0.0982541 0.00494492 0)
(0.0982056 0.00570078 0)
(0.0982103 0.00653712 0)
(0.0982864 0.00745191 0)
(0.0984535 0.00843772 0)
(0.0987318 0.00947971 0)
(0.0991391 0.0105537 0)
(0.0996866 0.011625 0)
(0.100374 0.0126493 0)
(0.101185 0.0135769 0)
(0.100004 -3.65018e-05 0)
(0.100025 -6.30377e-05 0)
(0.100055 -7.32587e-05 0)
(0.100087 -6.52094e-05 0)
(0.100116 -3.89277e-05 0)
(0.100136 2.2994e-06 0)
(0.100142 5.22003e-05 0)
(0.100131 0.000103076 0)
(0.100105 0.000147884 0)
(0.100065 0.000181869 0)
(0.100014 0.000203185 0)
(0.0999556 0.000212537 0)
(0.0998945 0.000212251 0)
(0.0998332 0.000205247 0)
(0.0997739 0.000194245 0)
(0.0997181 0.000181333 0)
(0.0996665 0.000167853 0)
(0.0996194 0.000154498 0)
(0.0995769 0.000141491 0)
(0.0995388 0.000128784 0)
(0.0995051 0.000116196 0)
(0.0994754 0.000103521 0)
(0.0994497 9.05783e-05 0)
(0.0994278 7.72336e-05 0)
(0.0994096 6.3402e-05 0)
(0.0993949 4.90423e-05 0)
(0.0993837 3.41482e-05 0)
(0.0993758 1.87401e-05 0)
(0.0993712 2.85802e-06 0)
(0.0993696 -1.34418e-05 0)
(0.0993711 -3.00882e-05 0)
(0.0993753 -4.69957e-05 0)
(0.0993823 -6.40648e-05 0)
(0.0993917 -8.11785e-05 0)
(0.0994035 -9.82042e-05 0)
(0.0994173 -0.000114985 0)
(0.0994329 -0.000131342 0)
(0.0994501 -0.000147072 0)
(0.0994686 -0.000161944 0)
(0.0994881 -0.000175697 0)
(0.0995082 -0.000188037 0)
(0.0995285 -0.000198635 0)
(0.0995488 -0.000207123 0)
(0.0995685 -0.000213093 0)
(0.0995873 -0.000216094 0)
(0.0996046 -0.000215623 0)
(0.0996201 -0.000211129 0)
(0.0996331 -0.000202 0)
(0.0996432 -0.00018756 0)
(0.0996498 -0.000167063 0)
(0.0996524 -0.000139683 0)
(0.0996503 -0.000104505 0)
(0.0996431 -6.05153e-05 0)
(0.0996302 -6.58641e-06 0)
(0.099611 5.85256e-05 0)
(0.099585 0.000136211 0)
(0.0995517 0.00022802 0)
(0.0995108 0.000335683 0)
(0.099462 0.000461124 0)
(0.0994051 0.00060649 0)
(0.0993401 0.000774162 0)
(0.0992674 0.000966779 0)
(0.0991874 0.00118725 0)
(0.0991012 0.00143876 0)
(0.0990102 0.00172476 0)
(0.0989165 0.00204893 0)
(0.0988231 0.00241513 0)
(0.0987337 0.00282729 0)
(0.0986533 0.00328929 0)
(0.0985879 0.00380467 0)
(0.0985452 0.00437637 0)
(0.0985342 0.00500626 0)
(0.0985656 0.00569462 0)
(0.0986511 0.00643945 0)
(0.0988036 0.00723568 0)
(0.099036 0.00807436 0)
(0.0993601 0.00894186 0)
(0.0997848 0.00981942 0)
(0.100314 0.0106833 0)
(0.100945 0.0115061 0)
(0.101664 0.0122594 0)
(0.100004 -4.16185e-05 0)
(0.100024 -7.23497e-05 0)
(0.100055 -8.48428e-05 0)
(0.100088 -7.69559e-05 0)
(0.100118 -4.85976e-05 0)
(0.100141 -3.21382e-06 0)
(0.100151 5.24149e-05 0)
(0.100147 0.000109821 0)
(0.100126 0.000161113 0)
(0.100092 0.000200804 0)
(0.100046 0.000226565 0)
(0.0999921 0.000238912 0)
(0.0999343 0.00024023 0)
(0.0998753 0.000233657 0)
(0.0998175 0.000222203 0)
(0.0997625 0.00020824 0)
(0.0997112 0.000193349 0)
(0.0996642 0.000178396 0)
(0.0996214 0.000163718 0)
(0.099583 0.000149329 0)
(0.0995488 0.000135078 0)
(0.0995186 0.000120767 0)
(0.0994921 0.000106213 0)
(0.0994694 9.12759e-05 0)
(0.0994501 7.58644e-05 0)
(0.0994342 5.99344e-05 0)
(0.0994214 4.34791e-05 0)
(0.0994118 2.65218e-05 0)
(0.0994051 9.10805e-06 0)
(0.0994012 -8.6968e-06 0)
(0.0994 -2.681e-05 0)
(0.0994012 -4.51344e-05 0)
(0.0994048 -6.35525e-05 0)
(0.0994104 -8.19302e-05 0)
(0.099418 -0.000100117 0)
(0.0994272 -0.000117931 0)
(0.0994379 -0.000135173 0)
(0.0994497 -0.00015161 0)
(0.0994624 -0.000166986 0)
(0.0994756 -0.000181008 0)
(0.0994891 -0.000193351 0)
(0.0995024 -0.00020365 0)
(0.0995153 -0.000211503 0)
(0.0995273 -0.000216464 0)
(0.0995381 -0.000218041 0)
(0.0995472 -0.000215694 0)
(0.0995542 -0.000208827 0)
(0.0995586 -0.000196789 0)
(0.0995601 -0.000178864 0)
(0.0995582 -0.000154269 0)
(0.0995525 -0.000122142 0)
(0.0995425 -8.15396e-05 0)
(0.0995277 -3.14268e-05 0)
(0.099508 2.93268e-05 0)
(0.0994829 0.000101959 0)
(0.0994521 0.000187834 0)
(0.0994155 0.000288447 0)
(0.099373 0.000405431 0)
(0.0993246 0.000540569 0)
(0.0992707 0.000695799 0)
(0.0992116 0.000873222 0)
(0.0991482 0.00107509 0)
(0.0990813 0.00130381 0)
(0.0990127 0.00156189 0)
(0.0989441 0.00185196 0)
(0.0988782 0.00217664 0)
(0.098818 0.0025385 0)
(0.0987676 0.00293992 0)
(0.0987317 0.00338294 0)
(0.0987158 0.00386904 0)
(0.0987266 0.00439887 0)
(0.0987713 0.00497196 0)
(0.098858 0.00558638 0)
(0.098995 0.00623832 0)
(0.0991907 0.00692177 0)
(0.0994528 0.00762818 0)
(0.0997878 0.00834633 0)
(0.100199 0.00906242 0)
(0.100688 0.00976055 0)
(0.10125 0.0104238 0)
(0.101876 0.0110359 0)
(0.100004 -4.70117e-05 0)
(0.100024 -8.22506e-05 0)
(0.100054 -9.73526e-05 0)
(0.100088 -8.99911e-05 0)
(0.10012 -5.99196e-05 0)
(0.100145 -1.0673e-05 0)
(0.10016 5.05398e-05 0)
(0.10016 0.000114541 0)
(0.100145 0.000172604 0)
(0.100117 0.000218472 0)
(0.100076 0.000249262 0)
(0.100027 0.000265213 0)
(0.0999733 0.000268692 0)
(0.099917 0.000263008 0)
(0.0998611 0.000251439 0)
(0.0998073 0.000236644 0)
(0.0997567 0.00022046 0)
(0.0997098 0.000203954 0)
(0.0996671 0.000187602 0)
(0.0996285 0.000171503 0)
(0.0995939 0.000155555 0)
(0.0995631 0.000139581 0)
(0.099536 0.000123402 0)
(0.0995124 0.000106877 0)
(0.099492 8.99125e-05 0)
(0.0994747 7.24617e-05 0)
(0.0994604 5.45183e-05 0)
(0.099449 3.61086e-05 0)
(0.0994401 1.72848e-05 0)
(0.0994337 -1.87927e-06 0)
(0.0994297 -2.1291e-05 0)
(0.0994278 -4.08326e-05 0)
(0.0994278 -6.03768e-05 0)
(0.0994295 -7.97717e-05 0)
(0.0994328 -9.88363e-05 0)
(0.0994373 -0.000117376 0)
(0.0994428 -0.000135167 0)
(0.0994491 -0.000151952 0)
(0.0994559 -0.000167445 0)
(0.0994628 -0.000181327 0)
(0.0994696 -0.000193242 0)
(0.0994759 -0.000202797 0)
(0.0994814 -0.000209557 0)
(0.0994858 -0.000213045 0)
(0.0994887 -0.000212739 0)
(0.0994897 -0.000208066 0)
(0.0994886 -0.000198403 0)
(0.0994849 -0.000183072 0)
(0.0994782 -0.000161333 0)
(0.0994684 -0.000132386 0)
(0.099455 -9.53596e-05 0)
(0.0994378 -4.93102e-05 0)
(0.0994165 6.7812e-06 0)
(0.0993909 7.40098e-05 0)
(0.0993611 0.000153566 0)
(0.0993268 0.000246733 0)
(0.0992882 0.000354887 0)
(0.0992454 0.000479501 0)
(0.099199 0.000622141 0)
(0.0991493 0.000784465 0)
(0.0990973 0.000968208 0)
(0.099044 0.00117517 0)
(0.0989907 0.00140717 0)
(0.0989393 0.00166605 0)
(0.0988918 0.00195356 0)
(0.0988509 0.00227136 0)
(0.0988198 0.00262085 0)
(0.0988022 0.00300312 0)
(0.0988021 0.00341878 0)
(0.0988243 0.00386783 0)
(0.098874 0.00434942 0)
(0.0989567 0.00486177 0)
(0.099078 0.00540185 0)
(0.0992435 0.00596534 0)
(0.0994582 0.00654644 0)
(0.0997264 0.00713786 0)
(0.100051 0.00773089 0)
(0.100433 0.00831568 0)
(0.100872 0.00888167 0)
(0.101363 0.00941834 0)
(0.101901 0.00991615 0)
(0.100004 -5.2678e-05 0)
(0.100024 -9.2731e-05 0)
(0.100053 -0.000110778 0)
(0.100087 -0.000104312 0)
(0.10012 -7.29103e-05 0)
(0.100148 -2.01313e-05 0)
(0.100166 4.64708e-05 0)
(0.100171 0.000117074 0)
(0.100162 0.00018214 0)
(0.100139 0.000234616 0)
(0.100104 0.000270997 0)
(0.10006 0.000291161 0)
(0.100009 0.000297383 0)
(0.0999563 0.000293085 0)
(0.0999026 0.000281785 0)
(0.0998504 0.000266428 0)
(0.0998007 0.00024912 0)
(0.0997544 0.000231151 0)
(0.0997119 0.000213162 0)
(0.0996732 0.000195363 0)
(0.0996383 0.000177716 0)
(0.099607 0.000160079 0)
(0.0995792 0.00014229 0)
(0.0995546 0.000124211 0)
(0.0995331 0.000105749 0)
(0.0995144 8.68568e-05 0)
(0.0994984 6.75303e-05 0)
(0.0994849 4.77993e-05 0)
(0.0994738 2.77224e-05 0)
(0.0994648 7.38301e-06 0)
(0.0994577 -1.31141e-05 0)
(0.0994524 -3.36357e-05 0)
(0.0994487 -5.40392e-05 0)
(0.0994464 -7.41543e-05 0)
(0.0994451 -9.37789e-05 0)
(0.0994447 -0.000112698 0)
(0.099445 -0.000130663 0)
(0.0994456 -0.000147397 0)
(0.0994464 -0.000162588 0)
(0.0994469 -0.000175891 0)
(0.099447 -0.000186925 0)
(0.0994463 -0.000195271 0)
(0.0994446 -0.000200473 0)
(0.0994414 -0.000202029 0)
(0.0994367 -0.000199396 0)
(0.09943 -0.000191982 0)
(0.099421 -0.00017915 0)
(0.0994096 -0.000160212 0)
(0.0993954 -0.000134424 0)
(0.0993783 -0.000100991 0)
(0.0993581 -5.90597e-05 0)
(0.0993345 -7.71736e-06 0)
(0.0993077 5.39993e-05 0)
(0.0992775 0.000127123 0)
(0.099244 0.000212747 0)
(0.0992074 0.000312027 0)
(0.099168 0.00042617 0)
(0.0991263 0.000556434 0)
(0.0990828 0.000704119 0)
(0.0990383 0.000870551 0)
(0.0989939 0.00105706 0)
(0.0989508 0.00126496 0)
(0.0989106 0.00149551 0)
(0.0988751 0.00174986 0)
(0.0988464 0.00202903 0)
(0.0988271 0.0023338 0)
(0.0988199 0.00266467 0)
(0.0988281 0.00302173 0)
(0.098855 0.00340461 0)
(0.0989044 0.00381235 0)
(0.0989801 0.00424331 0)
(0.0990859 0.00469507 0)
(0.0992256 0.00516435 0)
(0.0994025 0.00564699 0)
(0.0996195 0.00613797 0)
(0.0998787 0.00663142 0)
(0.100181 0.00712084 0)
(0.100526 0.0075993 0)
(0.100913 0.00805978 0)
(0.101337 0.00849562 0)
(0.101795 0.00890114 0)
(0.100003 -5.86072e-05 0)
(0.100023 -0.000103766 0)
(0.100052 -0.000125079 0)
(0.100086 -0.000119865 0)
(0.10012 -8.75085e-05 0)
(0.100149 -3.15381e-05 0)
(0.10017 4.02255e-05 0)
(0.100179 0.000117384 0)
(0.100175 0.000189621 0)
(0.100157 0.000249072 0)
(0.100127 0.000291554 0)
(0.100087 0.000316513 0)
(0.100041 0.000326054 0)
(0.0999914 0.000323658 0)
(0.0999403 0.000313048 0)
(0.0998899 0.000297446 0)
(0.0998415 0.000279235 0)
(0.099796 0.000259948 0)
(0.0997539 0.000240412 0)
(0.0997152 0.000220969 0)
(0.0996801 0.000201666 0)
(0.0996483 0.00018241 0)
(0.0996197 0.000163063 0)
(0.0995941 0.0001435 0)
(0.0995713 0.000123634 0)
(0.099551 0.000103419 0)
(0.0995331 8.2853e-05 0)
(0.0995175 6.19712e-05 0)
(0.0995038 4.08397e-05 0)
(0.0994919 1.95522e-05 0)
(0.0994817 -1.77166e-06 0)
(0.0994728 -2.29947e-05 0)
(0.0994651 -4.39474e-05 0)
(0.0994584 -6.44415e-05 0)
(0.0994525 -8.42666e-05 0)
(0.099447 -0.000103179 0)
(0.0994419 -0.000120911 0)
(0.0994367 -0.000137162 0)
(0.0994313 -0.000151602 0)
(0.0994254 -0.000163868 0)
(0.0994188 -0.000173556 0)
(0.0994112 -0.000180232 0)
(0.0994023 -0.000183421 0)
(0.0993919 -0.000182611 0)
(0.0993797 -0.000177245 0)
(0.0993656 -0.000166731 0)
(0.0993494 -0.00015043 0)
(0.0993308 -0.000127666 0)
(0.0993097 -9.77114e-05 0)
(0.0992861 -5.97999e-05 0)
(0.0992598 -1.31223e-05 0)
(0.0992309 4.31652e-05 0)
(0.0991995 0.000109952 0)
(0.0991656 0.000188168 0)
(0.0991296 0.000278773 0)
(0.0990918 0.000382754 0)
(0.0990526 0.000501114 0)
(0.0990127 0.000634865 0)
(0.0989729 0.000785011 0)
(0.098934 0.000952526 0)
(0.0988973 0.00113834 0)
(0.0988639 0.00134329 0)
(0.0988355 0.00156812 0)
(0.0988139 0.0018134 0)
(0.098801 0.00207951 0)
(0.098799 0.00236657 0)
(0.0988102 0.0026744 0)
(0.0988374 0.00300243 0)
(0.098883 0.0033497 0)
(0.0989499 0.00371473 0)
(0.0990407 0.00409555 0)
(0.0991579 0.00448961 0)
(0.0993038 0.00489381 0)
(0.0994803 0.00530452 0)
(0.0996889 0.00571761 0)
(0.0999303 0.00612856 0)
(0.100204 0.00653261 0)
(0.10051 0.0069249 0)
(0.100847 0.00730074 0)
(0.101211 0.00765584 0)
(0.101599 0.00798672 0)